172
TIMESTEP: 0	Temperature (K): 50.0	Potential Energy: -41.803497
C 15.0 15.0 15.0
C 20.0 15.0 15.0
C 25.0 15.0 15.0
C 30.0 15.0 15.0
C 15.0 20.0 15.0
C 17.5 17.5 15.0
C 20.0 20.0 15.0
C 22.5 17.5 15.0
C 27.5 17.5 15.0
C 25.0 20.0 15.0
C 30.0 20.0 15.0
C 15.0 25.0 15.0
C 17.5 22.5 15.0
C 17.5 27.5 15.0
C 20.0 25.0 15.0
C 22.5 22.5 15.0
C 27.5 22.5 15.0
C 22.5 27.5 15.0
C 25.0 25.0 15.0
C 27.5 27.5 15.0
C 30.0 25.0 15.0
C 15.0 30.0 15.0
C 20.0 30.0 15.0
C 25.0 30.0 15.0
C 30.0 30.0 15.0
C 15.0 15.0 20.0
C 17.5 15.0 17.5
C 20.0 15.0 20.0
C 22.5 15.0 17.5
C 27.5 15.0 17.5
C 25.0 15.0 20.0
C 30.0 15.0 20.0
C 15.0 17.5 17.5
C 15.0 20.0 20.0
C 20.0 17.5 17.5
C 17.5 20.0 17.5
C 17.5 17.5 20.0
C 20.0 20.0 20.0
C 25.0 17.5 17.5
C 22.5 20.0 17.5
C 27.5 20.0 17.5
C 22.5 17.5 20.0
C 27.5 17.5 20.0
C 25.0 20.0 20.0
C 30.0 17.5 17.5
C 30.0 20.0 20.0
C 15.0 22.5 17.5
C 15.0 27.5 17.5
C 15.0 25.0 20.0
C 20.0 22.5 17.5
C 17.5 25.0 17.5
C 20.0 27.5 17.5
C 17.5 22.5 20.0
C 17.5 27.5 20.0
C 20.0 25.0 20.0
C 25.0 22.5 17.5
C 22.5 25.0 17.5
C 27.5 25.0 17.5
C 25.0 27.5 17.5
C 22.5 22.5 20.0
C 27.5 22.5 20.0
C 22.5 27.5 20.0
C 25.0 25.0 20.0
C 27.5 27.5 20.0
C 30.0 22.5 17.5
C 30.0 27.5 17.5
C 30.0 25.0 20.0
C 15.0 30.0 20.0
C 17.5 30.0 17.5
C 20.0 30.0 20.0
C 22.5 30.0 17.5
C 27.5 30.0 17.5
C 25.0 30.0 20.0
C 30.0 30.0 20.0
C 15.0 15.0 25.0
C 17.5 15.0 22.5
C 17.5 15.0 27.5
C 20.0 15.0 25.0
C 22.5 15.0 22.5
C 27.5 15.0 22.5
C 22.5 15.0 27.5
C 25.0 15.0 25.0
C 27.5 15.0 27.5
C 30.0 15.0 25.0
C 15.0 17.5 22.5
C 15.0 17.5 27.5
C 15.0 20.0 25.0
C 20.0 17.5 22.5
C 17.5 20.0 22.5
C 17.5 17.5 25.0
C 20.0 17.5 27.5
C 17.5 20.0 27.5
C 20.0 20.0 25.0
C 25.0 17.5 22.5
C 22.5 20.0 22.5
C 27.5 20.0 22.5
C 22.5 17.5 25.0
C 27.5 17.5 25.0
C 25.0 17.5 27.5
C 22.5 20.0 27.5
C 25.0 20.0 25.0
C 27.5 20.0 27.5
C 30.0 17.5 22.5
C 30.0 17.5 27.5
C 30.0 20.0 25.0
C 15.0 22.5 22.5
C 15.0 27.5 22.5
C 15.0 22.5 27.5
C 15.0 25.0 25.0
C 15.0 27.5 27.5
C 20.0 22.5 22.5
C 17.5 25.0 22.5
C 20.0 27.5 22.5
C 17.5 22.5 25.0
C 20.0 22.5 27.5
C 17.5 27.5 25.0
C 17.5 25.0 27.5
C 20.0 25.0 25.0
C 20.0 27.5 27.5
C 25.0 22.5 22.5
C 22.5 25.0 22.5
C 27.5 25.0 22.5
C 25.0 27.5 22.5
C 22.5 22.5 25.0
C 27.5 22.5 25.0
C 25.0 22.5 27.5
C 22.5 27.5 25.0
C 22.5 25.0 27.5
C 25.0 25.0 25.0
C 27.5 27.5 25.0
C 27.5 25.0 27.5
C 25.0 27.5 27.5
C 30.0 22.5 22.5
C 30.0 27.5 22.5
C 30.0 22.5 27.5
C 30.0 25.0 25.0
C 30.0 27.5 27.5
C 15.0 30.0 25.0
C 17.5 30.0 22.5
C 17.5 30.0 27.5
C 20.0 30.0 25.0
C 22.5 30.0 22.5
C 27.5 30.0 22.5
C 22.5 30.0 27.5
C 25.0 30.0 25.0
C 27.5 30.0 27.5
C 30.0 30.0 25.0
C 15.0 15.0 30.0
C 20.0 15.0 30.0
C 25.0 15.0 30.0
C 30.0 15.0 30.0
C 15.0 20.0 30.0
C 17.5 17.5 30.0
C 20.0 20.0 30.0
C 22.5 17.5 30.0
C 27.5 17.5 30.0
C 25.0 20.0 30.0
C 30.0 20.0 30.0
C 15.0 25.0 30.0
C 17.5 22.5 30.0
C 17.5 27.5 30.0
C 20.0 25.0 30.0
C 22.5 22.5 30.0
C 27.5 22.5 30.0
C 22.5 27.5 30.0
C 25.0 25.0 30.0
C 27.5 27.5 30.0
C 30.0 25.0 30.0
C 15.0 30.0 30.0
C 20.0 30.0 30.0
C 25.0 30.0 30.0
C 30.0 30.0 30.0
172
TIMESTEP: 100	Temperature (K): 160.31099	Potential Energy: -44.451061
C 15.3712 15.6718 15.6678
C 20.1404 15.7621 15.5161
C 24.5887 15.7046 15.469
C 29.0394 15.6301 15.4592
C 15.4887 20.5267 15.6296
C 17.6321 18.0017 15.3955
C 20.1741 20.2322 15.6916
C 22.4308 18.1107 15.5276
C 27.0258 18.0754 15.4341
C 24.6208 20.1512 15.5594
C 29.3645 20.4472 15.8552
C 15.5887 24.586 15.7915
C 18.0355 22.4797 15.7234
C 17.8876 26.8069 15.6119
C 20.3221 24.5229 15.6186
C 22.5869 22.4606 15.7539
C 26.8866 22.4325 15.634
C 22.3838 26.9604 15.5063
C 24.7571 24.7817 15.5558
C 26.9532 27.1061 15.6464
C 29.3802 24.6902 15.6513
C 16.104 29.5418 15.1969
C 20.0487 29.1689 15.3968
C 24.7498 29.4243 15.625
C 29.1235 29.5762 15.7061
C 15.5068 15.8136 20.2929
C 17.7353 15.617 17.8722
C 20.2983 15.3703 20.1943
C 22.5195 15.5857 18.0454
C 26.9281 15.585 17.8425
C 24.7359 15.708 20.2399
C 29.2046 15.6358 20.336
C 15.2057 18.1127 17.7938
C 15.5826 20.2455 20.3139
C 20.182 17.8543 17.9401
C 17.8881 20.1841 18.0084
C 17.8957 17.8222 20.3032
C 20.1817 20.1361 20.3404
C 24.6742 17.9539 17.9684
C 22.3894 20.2331 17.9812
C 26.8412 20.2467 17.934
C 22.439 18.0047 20.2468
C 26.9504 18.0115 20.2044
C 24.5928 20.3237 20.2988
C 29.4986 17.9882 18.0626
C 29.4347 20.5391 20.2316
C 15.6204 22.5136 18.124
C 15.5676 27.0473 17.9759
C 15.6958 24.6795 20.2204
C 20.2499 22.4925 18.0627
C 18.0662 24.7072 17.9754
C 20.2743 27.0175 17.8803
C 18.1474 22.4717 20.3856
C 18.0475 26.9832 20.1167
C 20.3112 24.7178 20.337
C 24.5963 22.5299 17.977
C 22.4172 24.7134 18.0554
C 26.9985 24.7627 18.0877
C 24.6373 27.0274 17.8904
C 22.4252 22.4879 20.3118
C 26.9021 22.5483 20.288
C 22.4206 26.9485 20.2559
C 24.6797 24.6702 20.3037
C 26.9739 27.0295 20.3052
C 29.2995 22.7394 18.0935
C 29.4216 26.8197 18.0784
C 29.3337 24.6703 20.371
C 15.85 29.3969 20.1802
C 18.0399 29.5892 17.9074
C 20.4488 29.4634 20.2611
C 22.5085 29.4252 17.9028
C 26.9046 29.4662 17.9957
C 24.6846 29.3005 20.2868
C 29.3748 29.3278 20.1647
C 15.6047 15.5336 24.817
C 18.1333 15.3909 22.4778
C 18.1944 15.4216 27.0887
C 20.5167 15.3878 24.6988
C 22.5361 15.7277 22.4164
C 26.9736 15.7528 22.5299
C 22.5396 15.4423 27.0817
C 24.7511 15.6845 24.7523
C 27.14 15.4394 26.9108
C 29.4719 15.8955 24.6735
C 15.5751 17.9187 22.5501
C 15.5971 17.9161 27.0779
C 15.6952 20.2918 24.6828
C 20.345 17.8341 22.565
C 17.9278 20.2659 22.5646
C 18.0123 17.8196 24.7028
C 20.2793 17.9939 27.0325
C 17.9525 20.2546 26.8805
C 20.2968 20.1431 24.6132
C 24.7362 18.0387 22.4856
C 22.5437 20.2931 22.5906
C 26.8781 20.3214 22.5314
C 22.5433 17.9957 24.7285
C 27.0285 18.1137 24.8093
C 24.7639 17.9449 27.1072
C 22.5394 20.2878 26.9817
C 24.7225 20.1688 24.8234
C 27.1516 20.3372 27.1299
C 29.3909 18.3009 22.4976
C 29.581 18.054 27.1429
C 29.4967 20.4575 24.8307
C 15.7869 22.4564 22.4243
C 15.8496 26.9696 22.4442
C 15.5873 22.4496 26.867
C 15.5334 24.5959 24.5965
C 15.4642 26.9065 26.8342
C 20.3752 22.4959 22.5306
C 18.153 24.734 22.4522
C 20.3495 27.0824 22.5346
C 18.1014 22.5193 24.6138
C 20.2129 22.5249 26.9011
C 17.9663 27.1213 24.7129
C 17.947 24.6616 26.8662
C 20.4373 24.704 24.6605
C 20.3178 27.009 26.9621
C 24.736 22.5079 22.5123
C 22.5164 24.6404 22.4955
C 27.0107 24.7097 22.5655
C 24.7361 26.9024 22.5003
C 22.5771 22.4086 24.7051
C 27.0847 22.5367 24.8701
C 24.7468 22.3886 27.0477
C 22.4864 26.9352 24.7291
C 22.5986 24.7588 27.0036
C 24.7083 24.702 24.6992
C 27.1174 26.885 24.9347
C 27.0526 24.6621 27.1884
C 24.8407 27.0261 27.0562
C 29.2701 22.6097 22.6049
C 29.4119 26.8465 22.5586
C 29.4372 22.6183 27.1776
C 29.4528 24.6479 24.8964
C 29.6209 26.9318 27.2902
C 15.5936 29.412 24.7553
C 18.1169 29.4697 22.5127
C 17.921 29.652 26.8741
C 20.3844 29.4578 24.7477
C 22.5629 29.1799 22.5191
C 27.0088 29.3293 22.6369
C 22.5312 29.4568 26.9066
C 24.7689 29.4686 24.7294
C 27.1425 29.5735 27.0652
C 29.3949 29.2642 24.7193
C 15.5859 15.52 29.2444
C 20.3741 15.6927 29.5375
C 24.8271 15.5888 29.3128
C 29.4988 15.4659 29.1593
C 15.7074 20.3201 29.3236
C 18.0653 17.9355 29.4827
C 20.1948 20.3545 29.4216
C 22.4859 18.0153 29.4013
C 27.1365 17.7844 29.4021
C 24.7532 20.2736 29.575
C 29.4618 20.4768 29.463
C 15.8313 24.7001 29.2687
C 18.035 22.42 29.2978
C 18.0179 27.2809 29.2908
C 20.3868 24.784 29.3957
C 22.5685 22.3795 29.2728
C 26.8369 22.5656 29.5621
C 22.4953 27.133 29.2838
C 24.5627 24.8048 29.4834
C 26.9468 27.1235 29.4733
C 29.3145 24.6146 29.7054
C 15.4395 29.3486 29.1449
C 20.3971 29.6118 29.1271
C 24.5898 29.5908 29.4209
C 29.3904 29.2057 29.6044
172
TIMESTEP: 200	Temperature (K): 122.68728	Potential Energy: -44.046317
C 15.3505 15.2161 15.1436
C 19.9336 15.3016 15.3719
C 25.1572 15.5818 15.347
C 30.0885 15.5024 14.6881
C 15.2746 19.7252 15.4476
C 17.8108 17.7702 15.3447
C 19.9297 20.1558 15.2345
C 22.4992 17.6414 15.0999
C 27.4184 17.8385 15.1832
C 25.0446 20.0763 15.3102
C 30.0505 19.809 14.9719
C 15.1304 25.0032 15.8002
C 17.3841 22.5357 15.4849
C 17.7853 27.1476 15.3651
C 20.1679 24.639 15.1446
C 22.694 22.3575 14.928
C 27.6244 22.1292 15.1326
C 22.5221 27.0786 15.2441
C 25.1099 24.4795 15.3164
C 27.0724 27.2362 15.1418
C 29.5037 24.9966 15.0092
C 15.7695 30.2028 15.2511
C 20.1972 29.6412 15.4219
C 24.8108 29.6835 15.2824
C 29.5437 29.8928 15.2432
C 15.1398 15.4728 19.8488
C 17.64 15.3025 17.8991
C 20.1581 15.5056 19.9807
C 22.7451 15.307 17.6888
C 27.3021 15.4357 17.7054
C 25.1208 15.0882 20.2652
C 29.6812 15.2381 19.955
C 15.5598 17.8052 17.8283
C 15.2093 20.1276 20.3125
C 20.1771 17.7799 17.7876
C 17.6968 20.1568 17.6366
C 17.7924 17.8864 20.1612
C 20.1212 20.1818 20.0334
C 24.9985 17.8968 17.8404
C 22.5347 20.1941 17.5389
C 27.3288 19.9458 17.8629
C 22.636 17.7649 20.209
C 27.2738 17.7 20.2908
C 24.8584 20.1956 20.1362
C 29.6859 17.7314 17.6585
C 29.7074 19.9623 20.2244
C 14.974 22.2891 17.7235
C 15.335 27.5249 17.6349
C 15.08 24.8801 19.995
C 20.168 22.4711 17.6107
C 17.5959 24.7726 17.8244
C 20.1676 27.0205 17.7369
C 17.68 22.4663 20.1205
C 17.6252 27.1584 20.0817
C 20.0671 24.7731 20.2031
C 25.0325 22.381 17.8028
C 22.5839 24.7444 17.6892
C 27.3193 24.6986 17.6072
C 24.9138 27.1863 17.6045
C 22.4625 22.5055 19.9979
C 27.3292 22.4729 20.0778
C 22.4445 27.1655 20.0871
C 24.9637 24.8459 20.0465
C 27.2673 27.406 20.0158
C 29.79 22.2836 17.4787
C 29.5157 27.1997 17.4264
C 29.6946 24.9895 19.9999
C 15.2432 29.7745 19.8838
C 18.1075 29.4844 18.0276
C 20.3722 29.7671 20.4174
C 22.6712 29.731 17.792
C 27.0415 29.6398 17.6909
C 24.8674 29.8143 20.2619
C 29.8438 29.6526 19.4556
C 15.5044 14.8938 25.2004
C 17.5389 15.2823 22.4415
C 18.0249 15.2093 27.252
C 20.1507 15.2047 24.5675
C 22.4961 14.9697 22.2676
C 27.5944 15.3401 22.7865
C 22.2935 15.2921 27.3177
C 24.6952 14.9398 24.743
C 27.1043 15.327 26.9524
C 29.9653 15.4096 25.5534
C 15.4794 17.7585 22.9198
C 15.4578 17.6905 27.0176
C 15.0614 20.4834 25.085
C 20.1948 17.8273 22.5687
C 17.6475 20.2336 22.6726
C 17.9794 17.5607 24.9455
C 19.915 17.8089 27.3424
C 17.6637 20.303 27.1513
C 20.1295 20.1457 24.9147
C 24.9488 17.4873 22.6557
C 22.6179 20.1302 22.6442
C 27.3285 20.0703 22.4095
C 22.3472 17.5893 24.9388
C 27.4209 17.8528 24.9111
C 24.786 17.703 27.1666
C 22.4655 20.0349 27.3496
C 24.8937 20.1795 24.9952
C 27.0761 20.2587 27.3695
C 29.9252 17.5013 22.6278
C 29.7927 18.243 27.1522
C 29.7922 20.3512 24.6148
C 14.9668 22.5279 22.3493
C 15.0751 27.4625 22.5303
C 15.078 22.8947 27.6775
C 15.1517 24.7223 24.8328
C 15.5466 27.2602 27.2033
C 20.1476 22.4688 22.6332
C 17.6017 24.7108 22.4938
C 20.1163 27.2057 22.4613
C 17.7672 22.7659 25.0469
C 20.1036 22.4465 27.4821
C 17.61 27.2098 24.7601
C 17.8826 25.0579 27.4713
C 20.2011 25.0154 24.8179
C 20.1086 27.3334 27.2341
C 24.8419 22.6227 22.451
C 22.523 24.9192 22.4479
C 27.3183 24.9033 22.2715
C 24.9456 27.3186 22.4475
C 22.5168 22.5634 24.9357
C 27.3117 22.5394 24.7904
C 24.5962 22.4918 27.4112
C 22.5609 27.4607 24.788
C 22.3522 25.001 27.3205
C 24.8624 24.898 24.9369
C 27.1582 27.1928 24.9845
C 27.0497 24.9465 27.414
C 24.7998 27.2947 27.3133
C 29.9979 22.5541 22.1794
C 29.6767 27.4783 22.4728
C 29.548 22.4622 27.2691
C 29.7796 24.7838 24.7699
C 29.6035 26.9866 27.1811
C 15.2552 29.8899 25.42
C 17.4023 29.7155 22.4341
C 17.7421 29.6796 27.2199
C 20.0898 29.6586 24.6878
C 22.7158 30.7121 22.757
C 27.5205 29.9364 22.5527
C 22.516 29.9221 27.128
C 25.052 29.6193 24.8719
C 27.1938 29.5034 27.2827
C 29.7923 29.7634 25.2684
C 15.2819 14.9084 29.5084
C 19.7193 15.3729 29.8808
C 25.1579 15.1776 29.4468
C 30.0081 15.0495 29.1855
C 15.2049 19.9357 29.42
C 17.5755 17.8292 29.6502
C 20.1806 19.9523 29.8477
C 22.4016 17.4328 29.7871
C 27.1439 17.7343 29.496
C 24.7053 20.0567 29.6652
C 29.437 20.1683 29.7555
C 15.1844 25.4316 29.9966
C 17.5002 22.3307 30.0852
C 17.7831 27.3889 29.8738
C 20.0659 24.899 29.7953
C 22.2785 22.4788 30.0669
C 27.107 22.5637 29.7927
C 22.4777 27.3943 29.9256
C 24.6041 24.8639 29.7943
C 27.0574 27.1064 29.8832
C 29.488 24.9045 29.7376
C 14.972 29.7671 29.6257
C 20.1743 29.75 29.6751
C 24.8687 29.5535 29.6872
C 29.856 29.55 29.8164
172
TIMESTEP: 300	Temperature (K): 124.98788	Potential Energy: -44.302674
C 15.701 14.873 15.0431
C 20.3166 14.971 15.6877
C 24.7866 15.4504 15.2676
C 30.6056 16.1352 14.3465
C 15.6179 20.1924 15.0741
C 17.7718 17.6037 15.2608
C 20.152 20.0152 15.5093
C 22.3894 17.726 15.7687
C 27.7508 17.6256 15.2725
C 25.0004 19.7519 15.2669
C 30.3276 19.6872 15.6062
C 15.3052 24.8168 15.4801
C 17.9891 22.603 15.5638
C 17.5469 27.4674 15.4183
C 20.164 25.0018 15.5246
C 22.4401 22.5957 15.5572
C 27.1444 22.2582 15.3822
C 22.4505 27.0696 15.4023
C 24.8873 24.8254 15.2413
C 27.206 27.4045 14.9311
C 29.4554 24.5567 15.0916
C 15.1954 30.2922 15.7561
C 20.2313 29.5553 15.3907
C 24.6723 29.5418 15.2628
C 29.6709 29.8007 14.7404
C 15.2166 15.4416 20.6609
C 17.5675 15.3247 17.7849
C 20.0698 15.3779 20.3505
C 22.5678 15.3859 18.1065
C 27.4974 15.2722 17.5451
C 24.8989 15.511 20.248
C 29.7258 15.3665 20.5398
C 15.0046 17.4775 17.2703
C 15.3338 20.068 20.0299
C 20.0158 17.643 17.8879
C 17.6413 19.9083 17.526
C 17.5207 17.6702 20.0027
C 19.878 20.07 20.0194
C 25.1021 17.5881 17.6819
C 22.659 20.248 17.9071
C 27.5807 19.867 17.6082
C 22.6131 17.8919 20.1478
C 27.5147 17.7013 20.1604
C 25.099 20.1943 19.9112
C 30.1671 17.4971 18.0351
C 29.7883 20.2927 20.1779
C 15.5065 22.4438 17.6974
C 15.2336 27.4113 17.9864
C 15.4964 24.8808 20.148
C 20.1885 22.4477 17.9439
C 17.7118 25.022 17.6771
C 20.0416 27.1829 17.6796
C 17.8473 22.6098 20.1955
C 17.6846 27.317 20.0684
C 20.1148 24.9132 20.1196
C 24.9507 22.4449 17.6921
C 22.6459 24.9295 17.98
C 27.371 24.8263 17.584
C 25.0388 27.1954 17.4856
C 22.6232 22.5424 20.1346
C 27.3265 22.5132 20.0571
C 22.5645 27.1282 20.242
C 25.0371 24.9227 20.0323
C 27.3872 27.2215 19.7417
C 29.7668 22.5162 17.753
C 29.6713 27.3766 17.2968
C 29.8081 24.774 20.0728
C 15.5102 29.7842 20.4922
C 17.8929 29.7948 17.8541
C 20.2595 29.5426 20.2392
C 22.5527 29.5165 17.786
C 27.2714 29.7231 17.4716
C 24.9235 29.4387 20.0148
C 29.4586 29.9096 19.8725
C 15.5095 15.273 24.6919
C 17.7993 15.3727 22.6311
C 17.8519 15.2531 27.3014
C 20.024 15.6008 24.9448
C 22.4547 15.6778 22.7794
C 27.1547 15.4441 22.5719
C 22.4045 15.4101 27.2571
C 24.749 15.7404 24.9096
C 27.4671 15.0112 26.8132
C 30.3576 15.3758 25.142
C 15.2936 17.8884 22.6874
C 14.981 17.405 27.1914
C 15.3241 20.0272 25.0
C 20.0072 17.8911 22.6767
C 17.6663 20.1048 22.3112
C 17.4898 17.7484 24.8904
C 19.9331 17.8649 27.3197
C 17.5104 19.9831 27.4236
C 19.8338 20.1276 24.9082
C 25.0308 17.9586 22.409
C 22.2872 20.3047 22.3316
C 27.1924 20.1849 22.3972
C 22.2398 18.0254 24.9994
C 27.2362 17.7808 25.0131
C 24.9128 17.7335 27.3569
C 22.3728 20.1626 27.2818
C 24.7856 20.1435 24.7751
C 27.0589 20.0967 27.257
C 29.4948 17.819 22.7391
C 29.7541 17.8775 27.2788
C 29.3799 20.1082 25.0006
C 15.5493 22.7341 22.4937
C 15.4952 27.1614 22.505
C 15.276 22.6335 27.1686
C 15.3443 25.0252 25.0697
C 15.1821 27.3448 27.6872
C 20.0604 22.6179 22.4869
C 17.8745 25.0035 22.4704
C 20.324 27.2117 22.5531
C 17.6357 22.5513 24.8868
C 19.9941 22.5925 27.0869
C 17.4563 27.5043 25.2256
C 17.5133 25.0744 27.4826
C 19.8826 24.9976 24.9061
C 20.0573 27.3564 27.3784
C 24.814 22.5345 22.3854
C 22.4679 24.6412 22.5395
C 27.1986 24.9259 22.4938
C 24.7744 27.1014 22.4033
C 22.3367 22.3849 24.7376
C 27.1296 22.5559 24.8355
C 24.8017 22.602 27.0033
C 22.4827 27.1504 24.8778
C 22.4214 24.9643 27.0057
C 24.8963 24.9308 24.786
C 27.1904 27.2999 24.9689
C 27.174 24.8811 27.2168
C 25.0324 27.3468 27.2581
C 29.4027 22.5885 22.5288
C 29.6681 27.1966 22.2648
C 29.3737 22.401 27.3642
C 29.6312 24.7884 24.9679
C 29.7638 27.0665 27.2845
C 15.0637 29.4923 25.1048
C 17.9173 29.4082 22.676
C 17.435 29.8923 27.4655
C 20.226 29.6497 25.0421
C 22.5987 29.17 22.4817
C 27.0966 29.3176 22.3087
C 22.5387 29.5734 27.16
C 24.9833 29.6409 24.9464
C 27.3565 29.8786 27.3932
C 29.4157 29.6723 24.653
C 15.1313 14.873 29.2907
C 20.2027 15.7065 29.7935
C 24.6393 15.3328 29.6656
C 30.2297 15.0789 28.6345
C 14.8487 20.0013 29.3054
C 17.3227 17.596 29.8497
C 20.0757 20.1237 29.5353
C 22.3932 17.8827 29.5775
C 27.4322 17.1426 29.6794
C 24.866 20.1892 29.5243
C 29.0793 20.0905 29.7783
C 15.5972 24.8443 30.1154
C 17.6394 22.5618 29.5462
C 17.8162 27.5528 29.8998
C 20.1546 24.7386 29.7494
C 22.536 22.6227 29.493
C 27.0147 22.5161 29.5633
C 22.6516 27.1279 29.4422
C 24.8957 24.9223 29.4539
C 27.3912 27.2976 29.6413
C 29.4398 24.6787 29.6082
C 15.2125 29.9313 30.1923
C 20.2945 29.8697 29.5826
C 24.7203 29.5263 29.5487
C 29.8968 29.5877 29.9184
172
TIMESTEP: 400	Temperature (K): 119.46433	Potential Energy: -44.590506
C 16.0977 15.4207 15.542
C 20.2494 15.3776 15.8308
C 25.0407 15.3652 15.8639
C 30.2477 17.2127 15.4811
C 15.4726 20.022 15.6743
C 18.0198 17.9853 15.5956
C 20.2043 20.167 15.2785
C 22.4884 17.6894 15.531
C 27.1828 17.8772 15.7907
C 24.6489 20.0564 15.4929
C 29.3209 20.4069 16.0344
C 15.7772 25.0249 15.3795
C 17.9251 22.4495 15.3303
C 17.8764 27.3711 15.5616
C 20.2497 24.8459 15.3246
C 22.1908 22.4149 15.3251
C 26.9569 22.5431 15.5129
C 22.4934 27.1519 15.3438
C 24.5303 24.4589 15.4094
C 26.5634 26.6941 15.5661
C 29.4279 24.8456 15.4364
C 15.2618 29.3747 16.3902
C 20.4072 29.6215 15.5
C 24.8171 29.4732 15.4217
C 29.1559 28.8525 15.5374
C 15.0855 15.4687 20.0394
C 17.9908 15.5729 18.234
C 20.2097 15.3334 20.3876
C 22.5448 15.3804 17.9984
C 27.2164 15.4508 18.1409
C 24.7873 15.2315 20.327
C 29.3529 15.2416 20.4518
C 15.7022 17.7806 18.0791
C 15.4902 20.2857 20.2368
C 20.289 17.8208 17.9956
C 17.9354 20.3873 17.8308
C 18.0916 17.8523 20.3703
C 20.2548 20.2385 20.2437
C 24.6407 17.7035 18.0655
C 22.5408 20.249 17.9388
C 26.9538 20.2531 18.1235
C 22.4248 17.7753 20.3617
C 26.9958 17.9265 20.4151
C 24.7522 20.1399 20.2729
C 29.3219 17.7957 18.2983
C 29.326 20.4047 20.0535
C 15.3998 22.3483 17.7049
C 15.6356 26.8593 18.183
C 15.3579 24.5937 20.1283
C 20.2542 22.4911 17.8742
C 17.9988 24.5787 17.7988
C 20.2976 27.0959 17.7011
C 17.835 22.4744 20.1054
C 18.0553 27.2702 20.1516
C 20.2642 24.8235 20.204
C 24.7356 22.4325 17.8475
C 22.4433 24.7569 17.891
C 26.96 24.7826 17.8404
C 24.4865 27.0913 17.8564
C 22.4418 22.441 20.2745
C 27.0757 22.6944 20.1957
C 22.491 27.2147 20.2199
C 24.7804 24.8805 20.2204
C 27.0374 27.1515 20.1976
C 29.5596 23.0085 17.9715
C 29.2866 26.7842 17.8283
C 29.4121 24.9499 20.3313
C 15.4728 29.5946 20.0296
C 18.2088 29.7216 17.879
C 20.2545 29.6394 20.2037
C 22.5643 29.5399 17.8521
C 27.0215 29.2761 18.0542
C 24.7117 29.521 20.2597
C 29.6048 29.2799 20.1616
C 15.2838 15.6709 24.6403
C 17.5552 15.3931 22.2463
C 17.8396 15.5929 26.7176
C 20.2566 15.3846 24.6403
C 22.4662 15.3296 22.5989
C 26.8621 15.4377 22.5869
C 22.2772 15.5684 27.1792
C 24.6116 15.227 24.7238
C 26.8576 15.5938 26.8184
C 29.4312 15.6743 24.6105
C 15.2718 18.0602 22.5074
C 15.5431 18.0419 26.9684
C 15.4113 20.4626 24.721
C 20.215 17.7287 22.6554
C 17.7275 20.3304 22.4306
C 17.7505 18.043 24.5354
C 20.1591 17.981 26.7957
C 17.7553 20.3635 27.0351
C 20.0741 20.2503 24.7839
C 24.7999 17.7759 22.6762
C 22.5408 20.136 22.5696
C 27.2612 20.372 22.4915
C 22.5275 17.9544 24.8876
C 27.3153 18.0459 24.6801
C 24.7127 17.903 27.031
C 22.6482 20.2008 27.4168
C 24.8994 20.2483 24.8267
C 27.1823 20.4118 27.2519
C 29.8043 17.8992 22.29
C 29.5372 18.2048 27.06
C 29.7586 20.3665 24.5797
C 15.1696 22.5288 22.5112
C 15.2497 27.1665 22.3452
C 15.2764 22.5277 27.2063
C 15.3513 24.7597 24.6101
C 15.6336 27.05 27.0755
C 20.2008 22.4724 22.4639
C 17.8472 24.7738 22.3171
C 20.1984 27.2293 22.6085
C 17.8152 22.6499 24.6583
C 20.2427 22.4584 27.2135
C 17.7105 27.0622 24.525
C 17.9782 24.6764 27.0849
C 20.1252 24.8359 24.7714
C 20.3059 27.1268 27.0324
C 24.7385 22.4692 22.4947
C 22.4335 24.8082 22.582
C 27.16 24.736 22.6303
C 24.8186 27.1336 22.4676
C 22.4511 22.501 25.0619
C 27.2536 22.5773 24.921
C 24.8934 22.5892 27.333
C 22.4666 26.9051 24.8186
C 22.4212 24.7403 27.1381
C 24.9187 24.7917 24.8778
C 27.2379 27.1684 24.7857
C 27.1128 24.8774 27.1193
C 24.7392 27.063 27.2719
C 29.811 22.5001 22.422
C 29.5287 27.0856 22.5926
C 29.7733 22.4576 27.375
C 29.7084 24.6202 24.6617
C 29.5819 26.9784 26.8376
C 15.509 29.416 24.7728
C 17.879 29.702 22.4832
C 18.006 29.2016 26.8253
C 20.4182 29.7468 24.6298
C 22.4583 29.7151 22.3846
C 27.2451 29.7083 22.4493
C 22.5418 29.3939 27.3312
C 24.5794 29.4414 24.6413
C 26.9532 29.2728 26.8845
C 29.6553 29.4751 24.7417
C 15.6186 15.8041 29.0389
C 19.9404 15.5139 29.3098
C 24.8681 15.3987 29.3205
C 29.7026 15.016 28.0726
C 15.421 20.2558 29.4643
C 17.8826 18.0301 29.365
C 20.2758 20.2131 29.7244
C 22.6017 17.7887 29.7599
C 27.2097 17.78 29.39
C 24.9432 20.2363 29.6059
C 29.4465 20.1727 29.6348
C 15.519 24.9886 29.511
C 17.8462 22.5213 29.6278
C 18.2841 26.799 29.2733
C 20.3335 24.4899 29.7357
C 22.6123 22.1407 29.7908
C 27.3548 22.8094 29.722
C 22.5549 27.1844 29.5849
C 24.6293 24.6844 29.8471
C 26.941 26.904 29.4819
C 29.7592 25.0163 29.3058
C 16.2578 29.3991 29.4144
C 20.0722 29.6178 29.2121
C 24.9112 29.4929 29.5632
C 29.1196 29.407 29.3448
172
TIMESTEP: 500	Temperature (K): 89.665001	Potential Energy: -44.289537
C 14.6604 14.9221 15.5002
C 20.1132 15.2499 15.3061
C 24.6865 14.9474 15.5198
C 30.5713 16.7073 14.6237
C 15.4205 20.1462 15.4194
C 17.4293 17.6003 15.4257
C 20.1396 19.9531 15.5989
C 22.4763 17.5903 15.3649
C 27.3959 17.562 15.2425
C 24.9574 19.8129 15.6139
C 29.6359 19.9503 15.4408
C 15.337 24.5923 14.955
C 17.9346 22.4807 15.1244
C 17.7778 27.2795 15.3132
C 20.2096 24.8944 15.3877
C 22.5875 22.4132 15.3749
C 27.1618 22.2679 15.4677
C 22.602 27.2997 15.5506
C 25.0781 24.8363 15.6056
C 26.9722 27.774 15.0257
C 28.9936 25.0819 14.8208
C 15.2248 30.3611 15.3733
C 20.1226 29.9663 15.3653
C 24.8795 30.0369 15.4511
C 29.8893 29.6961 14.9484
C 15.13 15.446 20.2798
C 17.4786 15.0498 17.7322
C 20.0276 15.2159 20.0683
C 22.3945 15.2187 17.7722
C 27.1823 15.2612 17.7767
C 25.0053 15.3702 20.3757
C 29.5722 15.4083 20.2566
C 15.0759 17.494 17.7274
C 15.2141 20.0422 20.0088
C 19.9477 17.4988 17.6635
C 17.6071 19.9997 17.7362
C 17.5177 17.7185 19.9537
C 19.9804 20.0158 20.004
C 24.8695 17.4653 17.7043
C 22.5544 20.1364 17.8478
C 27.2834 19.811 17.8136
C 22.339 17.576 20.1399
C 27.2252 17.8627 20.1831
C 24.8122 20.0294 20.162
C 29.5381 17.488 17.7015
C 29.5644 20.0352 20.275
C 15.2659 22.4722 17.6442
C 15.151 27.4129 17.1674
C 15.4775 24.9983 19.9002
C 20.1459 22.4559 17.678
C 17.6806 24.8573 17.4718
C 20.0415 27.2143 17.7357
C 17.8793 22.5527 19.9686
C 17.7166 27.2617 19.9101
C 20.192 24.8718 20.017
C 24.9933 22.4477 17.8159
C 22.6084 24.8156 17.7011
C 27.3338 24.9787 17.7315
C 25.0301 27.3045 17.6683
C 22.5069 22.5454 20.105
C 27.2366 22.6712 20.2425
C 22.7671 27.2317 20.1119
C 24.8972 24.8755 20.0242
C 27.2722 27.1622 20.1314
C 29.5467 22.4006 17.6913
C 29.4557 27.358 17.3757
C 29.6793 24.9215 20.0779
C 15.365 29.7552 19.6686
C 17.8372 29.625 17.5153
C 20.0641 29.5428 20.1933
C 22.5371 29.8629 18.0147
C 27.5229 29.8196 17.7016
C 25.1024 29.6864 20.1786
C 29.5556 29.4736 20.2631
C 15.1216 15.6455 24.8887
C 17.5981 15.6574 22.5107
C 17.4485 15.2252 27.4885
C 20.1148 15.4282 24.9769
C 22.3545 15.1936 22.452
C 27.3648 15.4052 22.7308
C 22.428 14.964 27.3544
C 24.8366 15.4693 24.9504
C 27.7659 15.2899 27.211
C 30.1542 15.2807 24.9127
C 15.4115 17.9979 22.4609
C 15.143 17.6524 27.5483
C 15.505 20.3281 25.0415
C 20.1797 17.7187 22.5628
C 17.8357 20.1215 22.4893
C 17.6556 17.8303 24.9185
C 19.9186 17.6319 27.3228
C 17.589 19.9261 27.265
C 20.137 20.075 24.9817
C 24.7856 17.7169 22.4689
C 22.4158 20.0827 22.6266
C 27.1808 20.2537 22.5137
C 22.5347 17.7473 24.8294
C 27.2338 17.7518 25.0115
C 24.9113 17.6628 27.2277
C 22.5918 19.9554 27.1705
C 24.853 20.1206 24.7357
C 27.4377 19.9215 27.3619
C 29.4556 17.6462 22.5983
C 30.362 17.3795 27.2311
C 29.6038 20.0049 24.9661
C 15.5473 22.6008 22.471
C 15.4456 27.0938 22.4631
C 15.5184 22.5453 27.1962
C 15.4115 24.8289 24.7425
C 15.5441 27.6831 26.993
C 20.1036 22.4763 22.5496
C 17.8343 24.8533 22.5162
C 20.2456 27.1391 22.3154
C 17.8559 22.5137 24.995
C 20.0656 22.7019 27.2496
C 17.7266 27.2478 24.835
C 17.6934 24.9312 27.3645
C 20.0239 25.0052 24.8948
C 19.9564 27.4499 27.2461
C 24.6394 22.4846 22.4602
C 22.5516 24.8081 22.5017
C 27.2097 25.0164 22.6143
C 24.9347 27.3266 22.7155
C 22.3483 22.5682 25.0061
C 27.1061 22.5543 25.0227
C 24.8618 22.363 27.307
C 22.4813 27.2457 24.9875
C 22.4593 24.9847 27.3902
C 24.9689 24.9513 25.0172
C 27.2754 27.5362 25.1289
C 27.1551 25.051 27.4272
C 24.8113 27.481 27.2392
C 29.4691 22.6498 22.5752
C 29.6555 27.4163 22.7822
C 29.8216 22.4877 27.2927
C 29.4668 24.9843 25.1269
C 29.58 27.5724 27.4169
C 15.2666 29.6599 24.5122
C 17.7249 29.5143 22.3128
C 17.6762 30.0985 26.8435
C 20.1119 29.5283 24.6011
C 22.5976 29.7321 22.3552
C 27.2662 29.556 22.621
C 22.4048 29.7961 27.2822
C 24.9262 29.8693 25.1047
C 27.1897 29.977 27.6073
C 29.2445 30.2011 25.1191
C 14.7872 15.2039 30.2031
C 20.0706 15.3294 29.7472
C 25.166 15.4033 29.3599
C 30.882 14.4284 28.5556
C 15.3228 20.6042 29.6735
C 17.5928 17.5928 29.8241
C 20.0417 20.0934 29.4978
C 22.4736 17.7769 29.4511
C 27.7922 17.5764 29.5631
C 25.1204 19.6899 29.5923
C 29.6564 20.4035 29.8817
C 15.2268 24.636 29.6921
C 17.7939 22.4637 29.5525
C 17.5472 26.9494 29.8018
C 20.1383 24.8015 29.8469
C 22.7927 22.2811 29.6445
C 27.1321 22.3616 29.5955
C 22.413 27.286 29.6043
C 24.8636 24.9725 29.5791
C 27.5697 27.1558 29.9588
C 29.7315 24.7961 29.5073
C 15.8478 29.7167 29.7095
C 19.5719 29.6765 29.567
C 25.0711 29.4857 29.9199
C 29.8513 29.6055 29.954
172
TIMESTEP: 600	Temperature (K): 117.96607	Potential Energy: -45.203419
C 14.738 15.4737 16.656
C 20.1206 15.4059 15.6865
C 24.573 15.3943 15.7478
C 29.8224 16.7435 14.6947
C 15.8579 20.4842 15.1732
C 17.9533 17.9644 15.438
C 20.4017 20.0999 15.4477
C 22.3917 17.7715 15.7647
C 27.1715 17.9146 15.7108
C 24.6652 19.924 15.4046
C 29.4445 20.1943 15.2769
C 15.5964 24.8242 15.4349
C 18.2112 22.6333 15.5215
C 18.0263 26.9718 15.4616
C 20.5283 24.8899 15.4539
C 22.5462 22.3233 15.4188
C 26.9396 22.2067 15.5415
C 22.9486 27.1612 15.2913
C 25.0955 24.7901 15.4407
C 26.8977 27.51 15.4909
C 28.9517 24.9459 15.3205
C 16.3082 29.6132 15.3791
C 20.3649 29.3631 15.3615
C 24.8661 30.0563 15.4968
C 29.5824 29.5905 15.3894
C 15.5342 15.2669 20.146
C 17.7409 15.735 17.7383
C 19.9242 15.5358 20.3101
C 22.3038 15.3902 18.1179
C 27.2039 15.5082 17.9184
C 24.7081 15.3239 20.2425
C 29.7379 15.241 20.2695
C 15.7135 18.1328 17.8235
C 15.5521 20.3428 20.2758
C 20.2086 17.8957 18.0183
C 18.0655 20.2954 17.804
C 17.8171 17.9822 20.2014
C 20.1638 20.1464 20.265
C 24.8029 17.7378 17.9878
C 22.6212 20.1498 18.0852
C 27.1225 20.1901 17.9996
C 22.5821 17.9143 20.1694
C 27.2429 17.8011 20.2215
C 24.8766 20.0008 20.2736
C 29.5779 17.7153 17.886
C 29.6554 20.1957 20.1643
C 15.7448 22.537 17.6232
C 15.7672 26.9345 18.0063
C 15.3983 24.7531 20.1768
C 20.2996 22.4391 17.8999
C 17.8868 24.6509 17.814
C 20.2399 27.0012 17.8805
C 17.8583 22.593 20.2547
C 17.8628 27.102 20.2922
C 20.1723 24.696 20.1769
C 24.8775 22.365 17.9265
C 22.5887 24.771 17.779
C 27.2245 24.7025 17.9252
C 24.9001 27.1822 17.9845
C 22.5324 22.5205 20.2064
C 27.2215 22.409 20.1998
C 22.6027 26.9535 20.2491
C 24.9423 24.7397 20.1706
C 27.2259 27.187 20.108
C 29.3961 22.4851 17.6323
C 29.4766 27.0908 17.926
C 29.5616 24.707 20.142
C 15.3881 29.2326 20.061
C 18.0305 29.266 17.9328
C 20.1887 29.4944 20.2367
C 22.4767 29.1896 17.8784
C 27.0815 29.6575 17.9084
C 24.7861 29.7161 20.1557
C 29.724 29.6679 20.2158
C 15.4206 15.4789 25.0471
C 17.6388 15.3374 22.7384
C 17.9343 15.7992 27.264
C 20.1339 15.3975 24.8958
C 22.3523 15.5291 22.5422
C 27.1293 15.3189 22.3478
C 22.3153 15.7607 27.1695
C 24.6876 15.3294 24.9002
C 27.0333 15.3878 27.0174
C 29.438 15.3689 24.6795
C 15.5291 17.7555 22.49
C 15.629 17.9665 27.2231
C 15.3908 20.0547 24.8241
C 20.0705 17.7821 22.5423
C 17.7904 20.1963 22.5792
C 17.9596 17.8589 24.787
C 20.1749 18.0551 27.1337
C 18.055 20.2351 27.1559
C 20.2403 20.3157 24.6836
C 24.9019 17.6797 22.5058
C 22.4672 20.1099 22.466
C 27.3187 20.2037 22.4779
C 22.5319 17.908 24.7637
C 27.0975 17.7555 24.6416
C 24.8322 17.7633 27.0079
C 22.5233 20.1684 27.0549
C 24.8946 19.9604 24.7233
C 27.1095 20.2127 26.9768
C 29.6933 17.7371 22.3481
C 29.2906 17.8181 26.8975
C 29.5078 20.2828 24.7889
C 15.3819 22.5119 22.6125
C 15.5454 27.0395 22.4798
C 15.2841 22.5432 26.9979
C 15.265 24.9665 24.8485
C 15.5355 27.1149 27.0782
C 20.1737 22.4832 22.5253
C 17.811 24.8106 22.5179
C 20.2018 26.9284 22.4721
C 17.723 22.4361 24.8898
C 20.2225 22.5295 27.0894
C 17.8906 27.0798 24.7878
C 17.6963 24.8292 27.0563
C 20.1685 24.8264 24.7951
C 20.1191 27.1347 27.0611
C 24.7685 22.3452 22.5174
C 22.5583 24.6969 22.5166
C 27.2778 24.7583 22.3762
C 24.8783 27.2291 22.4527
C 22.5235 22.5389 24.9052
C 26.9074 22.5297 24.7684
C 24.7116 22.4972 27.0577
C 22.4467 27.2465 24.7557
C 22.3523 24.9012 27.0564
C 24.7534 24.7467 24.6984
C 26.9498 27.2997 24.7807
C 27.0592 24.9277 26.9785
C 24.6644 27.1917 27.1693
C 29.5875 22.4628 22.4228
C 29.3536 27.3888 22.4974
C 29.2791 22.5856 27.0997
C 29.6028 24.7595 24.7573
C 29.3152 27.2526 27.1413
C 15.3125 29.1799 24.7181
C 17.8354 29.4305 22.4525
C 17.7835 29.3425 26.9705
C 20.1076 29.7803 24.7998
C 22.4029 29.4359 22.5072
C 27.1092 29.5596 22.289
C 22.5108 29.7053 27.3985
C 24.6846 29.454 24.8844
C 26.8703 29.3908 27.3827
C 29.2969 29.4764 24.8026
C 15.2802 16.1074 29.7822
C 20.1151 15.4853 29.5479
C 24.8452 15.2477 29.4335
C 31.0865 15.0763 27.98
C 15.3451 20.1685 29.6566
C 17.8827 18.098 29.5994
C 20.3797 20.0844 30.0495
C 22.7514 17.8908 29.4775
C 26.9298 18.1143 29.4678
C 24.681 20.3988 29.6666
C 29.4153 20.3238 29.481
C 15.6239 24.726 29.461
C 17.9569 22.4041 29.4788
C 17.8629 27.0607 29.5093
C 20.0571 24.7613 29.4282
C 22.3927 22.4191 29.3135
C 27.0255 22.4605 29.3462
C 22.0093 27.3232 29.6733
C 24.4848 24.8763 29.56
C 26.9572 26.9985 29.7701
C 29.4154 24.9317 29.4277
C 16.1521 29.9212 29.62
C 19.878 29.8067 29.4469
C 24.3605 29.4804 30.1124
C 29.4856 29.1656 29.9847
172
TIMESTEP: 700	Temperature (K): 89.88003	Potential Energy: -44.914551