172
TIMESTEP: 0	Temperature (K): 50.0	Potential Energy: -41.803497
C 15.0 15.0 15.0
C 20.0 15.0 15.0
C 25.0 15.0 15.0
C 30.0 15.0 15.0
C 15.0 20.0 15.0
C 17.5 17.5 15.0
C 20.0 20.0 15.0
C 22.5 17.5 15.0
C 27.5 17.5 15.0
C 25.0 20.0 15.0
C 30.0 20.0 15.0
C 15.0 25.0 15.0
C 17.5 22.5 15.0
C 17.5 27.5 15.0
C 20.0 25.0 15.0
C 22.5 22.5 15.0
C 27.5 22.5 15.0
C 22.5 27.5 15.0
C 25.0 25.0 15.0
C 27.5 27.5 15.0
C 30.0 25.0 15.0
C 15.0 30.0 15.0
C 20.0 30.0 15.0
C 25.0 30.0 15.0
C 30.0 30.0 15.0
C 15.0 15.0 20.0
C 17.5 15.0 17.5
C 20.0 15.0 20.0
C 22.5 15.0 17.5
C 27.5 15.0 17.5
C 25.0 15.0 20.0
C 30.0 15.0 20.0
C 15.0 17.5 17.5
C 15.0 20.0 20.0
C 20.0 17.5 17.5
C 17.5 20.0 17.5
C 17.5 17.5 20.0
C 20.0 20.0 20.0
C 25.0 17.5 17.5
C 22.5 20.0 17.5
C 27.5 20.0 17.5
C 22.5 17.5 20.0
C 27.5 17.5 20.0
C 25.0 20.0 20.0
C 30.0 17.5 17.5
C 30.0 20.0 20.0
C 15.0 22.5 17.5
C 15.0 27.5 17.5
C 15.0 25.0 20.0
C 20.0 22.5 17.5
C 17.5 25.0 17.5
C 20.0 27.5 17.5
C 17.5 22.5 20.0
C 17.5 27.5 20.0
C 20.0 25.0 20.0
C 25.0 22.5 17.5
C 22.5 25.0 17.5
C 27.5 25.0 17.5
C 25.0 27.5 17.5
C 22.5 22.5 20.0
C 27.5 22.5 20.0
C 22.5 27.5 20.0
C 25.0 25.0 20.0
C 27.5 27.5 20.0
C 30.0 22.5 17.5
C 30.0 27.5 17.5
C 30.0 25.0 20.0
C 15.0 30.0 20.0
C 17.5 30.0 17.5
C 20.0 30.0 20.0
C 22.5 30.0 17.5
C 27.5 30.0 17.5
C 25.0 30.0 20.0
C 30.0 30.0 20.0
C 15.0 15.0 25.0
C 17.5 15.0 22.5
C 17.5 15.0 27.5
C 20.0 15.0 25.0
C 22.5 15.0 22.5
C 27.5 15.0 22.5
C 22.5 15.0 27.5
C 25.0 15.0 25.0
C 27.5 15.0 27.5
C 30.0 15.0 25.0
C 15.0 17.5 22.5
C 15.0 17.5 27.5
C 15.0 20.0 25.0
C 20.0 17.5 22.5
C 17.5 20.0 22.5
C 17.5 17.5 25.0
C 20.0 17.5 27.5
C 17.5 20.0 27.5
C 20.0 20.0 25.0
C 25.0 17.5 22.5
C 22.5 20.0 22.5
C 27.5 20.0 22.5
C 22.5 17.5 25.0
C 27.5 17.5 25.0
C 25.0 17.5 27.5
C 22.5 20.0 27.5
C 25.0 20.0 25.0
C 27.5 20.0 27.5
C 30.0 17.5 22.5
C 30.0 17.5 27.5
C 30.0 20.0 25.0
C 15.0 22.5 22.5
C 15.0 27.5 22.5
C 15.0 22.5 27.5
C 15.0 25.0 25.0
C 15.0 27.5 27.5
C 20.0 22.5 22.5
C 17.5 25.0 22.5
C 20.0 27.5 22.5
C 17.5 22.5 25.0
C 20.0 22.5 27.5
C 17.5 27.5 25.0
C 17.5 25.0 27.5
C 20.0 25.0 25.0
C 20.0 27.5 27.5
C 25.0 22.5 22.5
C 22.5 25.0 22.5
C 27.5 25.0 22.5
C 25.0 27.5 22.5
C 22.5 22.5 25.0
C 27.5 22.5 25.0
C 25.0 22.5 27.5
C 22.5 27.5 25.0
C 22.5 25.0 27.5
C 25.0 25.0 25.0
C 27.5 27.5 25.0
C 27.5 25.0 27.5
C 25.0 27.5 27.5
C 30.0 22.5 22.5
C 30.0 27.5 22.5
C 30.0 22.5 27.5
C 30.0 25.0 25.0
C 30.0 27.5 27.5
C 15.0 30.0 25.0
C 17.5 30.0 22.5
C 17.5 30.0 27.5
C 20.0 30.0 25.0
C 22.5 30.0 22.5
C 27.5 30.0 22.5
C 22.5 30.0 27.5
C 25.0 30.0 25.0
C 27.5 30.0 27.5
C 30.0 30.0 25.0
C 15.0 15.0 30.0
C 20.0 15.0 30.0
C 25.0 15.0 30.0
C 30.0 15.0 30.0
C 15.0 20.0 30.0
C 17.5 17.5 30.0
C 20.0 20.0 30.0
C 22.5 17.5 30.0
C 27.5 17.5 30.0
C 25.0 20.0 30.0
C 30.0 20.0 30.0
C 15.0 25.0 30.0
C 17.5 22.5 30.0
C 17.5 27.5 30.0
C 20.0 25.0 30.0
C 22.5 22.5 30.0
C 27.5 22.5 30.0
C 22.5 27.5 30.0
C 25.0 25.0 30.0
C 27.5 27.5 30.0
C 30.0 25.0 30.0
C 15.0 30.0 30.0
C 20.0 30.0 30.0
C 25.0 30.0 30.0
C 30.0 30.0 30.0
172
TIMESTEP: 100	Temperature (K): 158.38343	Potential Energy: -44.045586
C 15.5054 15.6225 15.788
C 20.3939 15.4267 15.7563
C 24.6962 15.7148 15.6112
C 29.4817 15.9219 15.8345
C 15.8248 20.2431 15.4308
C 18.0952 17.7636 15.5502
C 20.2376 20.2386 15.4677
C 22.4745 17.881 15.5203
C 27.0725 18.0199 15.4385
C 24.7373 20.3038 15.553
C 29.4213 20.3414 15.6247
C 15.7182 24.6144 15.7103
C 18.0595 22.4297 15.6921
C 18.0177 26.9505 15.6766
C 20.3609 24.6825 15.5947
C 22.4297 22.4047 15.6514
C 27.0032 22.4092 15.5545
C 22.4874 26.827 15.5071
C 24.6354 24.5804 15.5054
C 27.1015 26.6618 15.4229
C 29.436 24.5901 15.6627
C 15.5183 29.3082 15.6398
C 20.3601 29.3904 15.5879
C 24.8342 29.1854 15.4357
C 29.4798 29.1177 15.5322
C 15.688 15.5279 20.445
C 18.0431 15.3851 18.0067
C 20.2914 15.6695 20.373
C 22.5351 15.5569 18.0957
C 26.9716 15.6329 17.9543
C 24.6478 15.7498 20.2414
C 29.2654 15.7766 20.2825
C 15.7308 18.1129 18.0317
C 15.6627 20.3877 20.3142
C 20.3847 18.0184 17.9882
C 18.1154 20.4072 17.9896
C 17.997 18.0386 20.3064
C 20.3247 20.3365 20.346
C 24.6801 18.0592 18.0288
C 22.5742 20.3546 18.0059
C 26.9539 20.2944 17.9936
C 22.502 18.1009 20.364
C 27.0042 18.1152 20.3352
C 24.6812 20.3324 20.3542
C 29.4006 18.103 18.0957
C 29.5102 20.4083 20.3786
C 15.7682 22.5318 18.0644
C 15.6496 26.986 18.069
C 15.6353 24.6652 20.3506
C 20.2598 22.4796 18.0868
C 18.0237 24.7736 17.9299
C 20.3714 27.0077 17.9969
C 18.0663 22.552 20.2934
C 17.9572 27.1208 20.4603
C 20.3055 24.7349 20.3484
C 24.733 22.5315 18.045
C 22.4648 24.7172 18.0043
C 26.9846 24.6538 17.941
C 24.6765 26.9024 17.8259
C 22.5081 22.5629 20.2875
C 26.991 22.5316 20.334
C 22.5026 27.049 20.3087
C 24.6531 24.6725 20.2918
C 27.0888 26.9841 20.1774
C 29.3218 22.4314 18.0085
C 29.3967 26.998 17.8967
C 29.3513 24.6315 20.1683
C 15.716 29.4153 20.5367
C 18.0408 29.5255 18.0195
C 20.3852 29.4235 20.2346
C 22.5179 29.4051 17.8893
C 27.039 29.3223 17.8708
C 24.6841 29.3067 20.1586
C 29.3127 29.4103 20.2812
C 15.5571 15.8224 24.571
C 18.1072 15.643 22.669
C 18.047 15.5453 26.8252
C 20.4157 15.7253 24.8013
C 22.5551 15.7765 22.4677
C 26.8975 15.5604 22.3983
C 22.5813 15.6084 26.8919
C 24.7064 15.5187 24.7104
C 27.06 15.6355 26.905
C 29.4594 15.7878 24.6519
C 15.6629 18.2084 22.5275
C 15.5702 18.0927 26.9854
C 15.4252 20.4502 24.6932
C 20.3351 17.9696 22.5143
C 18.0846 20.3826 22.5322
C 18.1085 18.113 24.7535
C 20.2954 18.2306 27.0723
C 17.9548 20.3938 26.9472
C 20.2553 20.408 24.7358
C 24.7718 18.1198 22.5195
C 22.4497 20.3971 22.4742
C 27.0784 20.2938 22.5214
C 22.5151 18.11 24.6848
C 27.064 18.0071 24.5072
C 24.7939 17.8938 26.8656
C 22.5294 20.326 26.987
C 24.8099 20.3978 24.629
C 27.1019 20.1423 26.9687
C 29.6156 18.0522 22.2855
C 29.7293 17.8799 27.0744
C 29.48 20.2809 24.6246
C 15.7361 22.5165 22.6109
C 15.5203 26.9493 22.5012
C 15.5545 22.5886 27.0253
C 15.5588 24.7873 24.6773
C 15.2249 27.0375 27.0442
C 20.2492 22.5757 22.4858
C 17.9505 24.5997 22.5501
C 20.2664 27.0614 22.4894
C 17.9976 22.5719 24.7984
C 20.3384 22.5658 27.0212
C 17.9095 27.0473 24.7142
C 17.933 24.7956 27.0131
C 20.2273 24.7596 24.8313
C 20.2208 27.0186 27.1221
C 24.5445 22.5029 22.535
C 22.4199 24.679 22.4573
C 26.9323 24.6717 22.4287
C 24.7158 27.0083 22.4146
C 22.4612 22.5233 24.7418
C 26.9775 22.5251 24.7126
C 24.6862 22.5378 26.8678
C 22.4714 27.02 24.628
C 22.4784 24.7363 27.0118
C 24.6216 24.7767 24.6916
C 26.9365 27.0238 24.6586
C 27.0528 24.8149 27.0162
C 24.7267 26.8917 26.9495
C 29.2044 22.5489 22.5556
C 29.2924 26.844 22.4826
C 29.3962 22.512 26.9468
C 29.4699 24.6208 24.6702
C 29.4633 27.0281 27.0626
C 15.6207 29.3645 24.8606
C 18.0402 29.4475 22.6911
C 17.946 29.5207 27.2229
C 20.1326 29.2909 24.8202
C 22.584 29.3469 22.5176
C 26.9624 29.261 22.4117
C 22.5068 29.347 26.9926
C 24.7203 29.365 24.7163
C 27.0221 29.556 27.0912
C 29.2665 29.247 24.8369
C 15.7516 15.5128 29.1869
C 20.1853 15.7883 29.3197
C 24.804 15.3571 29.0903
C 29.2202 15.499 29.6168
C 15.5655 20.3684 29.6472
C 17.9894 18.1376 29.4857
C 20.2616 20.4327 29.4112
C 22.4967 17.997 29.2747
C 26.7827 17.8331 29.4831
C 24.7079 20.3052 29.2383
C 29.2302 20.2017 29.4388
C 15.4522 24.7086 29.4562
C 17.9317 22.4706 29.3822
C 17.6867 26.959 29.4613
C 20.1966 24.6925 29.3767
C 22.4982 22.6243 29.2144
C 27.0235 22.4794 29.2392
C 22.5161 26.8177 29.4332
C 24.7398 24.6496 29.2399
C 27.0015 26.7586 29.4627
C 29.4285 24.646 29.4536
C 15.2788 29.2456 29.4059
C 20.1861 29.1401 29.598
C 24.7294 29.2954 29.3558
C 29.2273 29.0971 29.4975
172
TIMESTEP: 200	Temperature (K): 145.12814	Potential Energy: -43.419396
C 14.8945 14.6607 14.8817
C 19.6984 15.3137 15.461
C 25.0624 15.2978 15.3608
C 30.2163 15.1383 15.411
C 15.0486 19.8413 15.2812
C 17.5241 17.6162 15.4693
C 19.9282 20.1389 15.512
C 22.5793 17.6101 15.2627
C 27.085 17.8397 15.2198
C 24.7495 20.038 15.1881
C 29.46 20.0774 15.2455
C 15.2281 25.2086 15.0405
C 17.3015 22.5015 15.1679
C 17.6788 27.5983 15.4292
C 19.9567 24.8048 15.2253
C 22.258 22.4256 15.1269
C 27.3558 22.5218 15.2076
C 22.4749 27.7783 15.053
C 24.6477 24.8376 15.1046
C 27.1933 27.0689 15.2672
C 29.7358 25.2329 15.0102
C 15.198 30.192 15.0599
C 19.8996 30.045 15.4337
C 25.2553 29.8406 15.1519
C 29.7484 29.524 14.9587
C 14.8736 15.1229 19.9606
C 17.5784 15.3141 17.8208
C 20.125 15.204 20.1891
C 22.5026 15.2842 17.7751
C 27.3758 15.2581 17.7121
C 25.0982 15.0281 20.2137
C 29.9673 15.383 19.9929
C 14.8943 17.4864 17.6059
C 15.2792 20.0201 19.9391
C 20.0096 17.7112 17.7976
C 17.5222 20.0609 17.7403
C 17.4799 17.7007 20.0448
C 20.0522 20.1618 20.1189
C 24.9922 17.6662 17.7245
C 22.4935 20.0796 17.5378
C 27.4013 20.2415 17.7408
C 22.591 17.5358 20.147
C 27.3171 17.6006 20.0239
C 25.0033 20.1415 20.1955
C 29.6858 17.8164 17.7952
C 29.8386 20.3273 19.9161
C 15.2249 22.6715 17.6127
C 15.1363 27.0833 17.6579
C 15.2302 24.9604 20.3281
C 20.0002 22.4962 17.7556
C 17.7055 25.0259 17.6363
C 20.0492 27.327 17.715
C 17.6019 22.4787 20.0385
C 17.6999 27.3013 20.0966
C 20.0482 24.9542 20.1629
C 24.8678 22.5179 17.5686
C 22.5224 24.9403 17.5275
C 27.3386 24.8601 17.6888
C 24.7719 27.2164 17.6114
C 22.5213 22.4325 20.2006
C 27.4908 22.6521 20.0154
C 22.6256 27.417 20.1665
C 24.8558 24.9125 20.1748
C 27.4117 27.1799 19.9891
C 29.8893 22.8667 17.5534
C 29.653 27.0207 17.6223
C 29.8242 24.8753 20.2918
C 15.2501 29.5804 19.7152
C 17.7323 29.8831 17.7942
C 20.2735 29.7549 19.9174
C 22.724 29.8142 17.4934
C 27.2756 29.5735 17.5689
C 25.0033 29.7279 19.9177
C 29.729 29.7457 20.0213
C 15.269 15.2947 25.0106
C 17.3172 15.4667 22.4186
C 17.6415 15.3615 27.2842
C 20.1801 15.1079 24.7173
C 22.6095 14.977 22.592
C 27.3409 15.3122 22.7693
C 22.358 15.2148 27.5423
C 24.7283 15.3163 24.9207
C 27.2316 15.1356 27.2768
C 29.9791 15.1923 25.2197
C 14.7013 17.5222 22.4953
C 15.2481 17.7489 27.0648
C 15.4358 20.1386 24.7619
C 20.0745 17.4946 22.3706
C 17.6553 20.24 22.35
C 17.7135 17.6688 24.7971
C 20.086 17.7365 27.2248
C 17.8084 20.1466 27.2237
C 20.0518 20.0077 24.7187
C 24.9727 17.6132 22.4372
C 22.5452 20.1329 22.5566
C 27.522 20.1068 22.4757
C 22.4057 17.7551 24.8578
C 27.153 17.6678 24.8249
C 24.8654 17.6014 27.2883
C 22.5618 19.9587 27.2481
C 25.0126 20.1119 24.7968
C 27.3727 20.3454 27.3481
C 29.7236 17.3763 22.6209
C 29.3889 17.8213 27.2854
C 29.6331 20.063 24.8689
C 14.9357 22.3484 22.3552
C 15.3949 27.467 22.3433
C 15.1943 22.6427 27.1579
C 15.1956 24.854 24.4175
C 15.5267 27.0942 27.0765
C 20.2487 22.497 22.3233
C 17.7375 24.7872 22.393
C 20.152 27.3699 22.4215
C 17.7118 22.5423 24.6374
C 20.2316 22.3623 27.3433
C 17.8121 27.1204 24.8196
C 17.9281 24.7334 27.3381
C 20.2448 24.8346 24.9638
C 20.2869 27.2643 27.4825
C 24.8988 22.5243 22.4315
C 22.4865 24.9146 22.3956
C 27.3202 24.9386 22.4215
C 24.9213 27.3393 22.5963
C 22.5333 22.4409 24.9584
C 27.371 22.5669 24.8487
C 24.9494 22.4449 27.2543
C 22.5504 27.4134 24.9323
C 22.6743 24.7623 27.3628
C 24.9201 24.915 24.7812
C 27.3419 27.3235 24.8671
C 27.1806 24.8061 27.4006
C 25.0245 27.2326 27.3125
C 30.0195 22.5512 22.5894
C 29.8543 27.5079 22.7211
C 29.9025 22.5654 27.3125
C 29.8411 25.072 25.0953
C 29.5888 27.4302 27.2796
C 15.0756 29.8948 25.156
C 17.659 29.6529 22.5349
C 17.7681 29.5734 27.0987
C 20.2376 29.7346 24.8297
C 22.5529 29.8777 22.4582
C 27.3302 29.741 22.6866
C 22.5312 29.6799 27.6234
C 24.9006 29.7527 25.1698
C 27.2389 29.5788 27.4492
C 29.9287 30.0064 25.3684
C 15.5957 14.9722 30.3779
C 19.7681 15.1477 29.8191
C 25.1025 15.3148 29.7549
C 29.7665 15.4184 29.7971
C 15.428 19.9677 29.4277
C 17.7165 17.6857 29.5825
C 20.0887 20.1314 29.5608
C 22.2977 17.617 29.7166
C 27.1785 18.0279 29.7221
C 24.704 20.5198 29.9804
C 29.7821 19.9774 29.7473
C 15.3167 24.8099 29.7573
C 17.7047 22.3729 29.8092
C 17.9118 26.9603 29.6725
C 20.2252 24.6936 29.833
C 22.2236 22.2294 31.0509
C 27.6556 22.4779 30.007
C 22.8072 27.4509 29.923
C 24.863 24.5342 29.896
C 27.3111 27.2951 29.84
C 29.8871 25.0632 29.6413
C 15.1228 29.9006 29.5357
C 19.8731 29.6451 29.7426
C 25.2729 29.9069 30.1262
C 29.8929 30.5183 29.9396
172
TIMESTEP: 300	Temperature (K): 146.75101	Potential Energy: -43.261743
C 14.0412 13.7893 14.0619
C 20.0484 15.14 15.4593
C 24.6958 15.3581 15.5108
C 30.348 14.6721 15.6066
C 15.1093 20.3768 15.6586
C 17.3607 17.5113 15.3212
C 19.9408 20.1285 15.3761
C 22.447 17.7724 15.529
C 27.4471 17.4752 15.2859
C 24.7659 20.2501 15.3803
C 29.7738 20.4747 15.2836
C 15.6234 24.6771 15.2157
C 17.8004 22.3631 15.4505
C 17.557 27.5401 15.027
C 20.1582 24.8732 15.4432
C 22.5372 22.6635 15.5135
C 27.1286 22.5522 15.2795
C 22.5799 27.3311 15.5256
C 24.956 24.9902 15.3186
C 27.3784 27.562 15.0795
C 29.4465 24.9374 14.9791
C 15.3707 30.508 14.625
C 20.1762 30.0978 15.4942
C 24.7125 29.9468 15.3277
C 29.8578 29.5318 14.968
C 15.1212 15.2904 20.1938
C 17.3557 14.8654 17.438
C 19.7807 15.4308 19.8837
C 22.393 15.3638 17.9137
C 27.4458 15.1675 17.6641
C 24.8044 15.627 19.9795
C 29.7905 15.5669 20.0846
C 14.7354 17.5615 17.5143
C 14.9499 20.2726 20.2084
C 19.7573 17.6863 17.5995
C 17.4546 20.0116 17.7734
C 17.3069 17.474 19.7474
C 19.8635 19.9146 19.9927
C 25.0122 17.8768 17.5542
C 22.3891 20.1404 17.845
C 27.5421 20.0311 17.6654
C 22.2268 17.7732 19.8902
C 27.2905 17.7311 19.9675
C 24.9725 19.9211 20.1253
C 30.1866 17.5836 17.552
C 29.6068 20.1354 20.1618
C 15.1255 22.5703 17.9481
C 15.3776 27.7069 17.7623
C 15.2501 25.0777 20.3512
C 20.2085 22.3597 17.791
C 17.6882 24.9636 17.7333
C 19.873 27.3862 17.7161
C 17.7404 22.447 20.0017
C 17.7231 27.3427 20.184
C 20.0223 24.9527 19.8724
C 25.02 22.6285 17.735
C 22.6055 25.0988 17.7689
C 27.5154 25.3192 17.4152
C 25.1178 27.6521 17.5859
C 22.4525 22.5076 20.192
C 27.2094 22.6218 19.9556
C 22.5417 27.1748 20.0241
C 24.9633 25.0222 19.9231
C 27.099 27.4234 20.0939
C 29.4112 22.6607 17.79
C 30.0051 27.3986 17.3798
C 29.6047 24.8878 20.0515
C 15.1892 29.6328 20.553
C 17.5384 29.9994 17.8158
C 20.28 29.5998 19.9983
C 22.4815 29.5867 17.788
C 27.5299 30.1643 17.7642
C 24.7634 29.7328 20.1402
C 29.8261 29.2628 20.1252
C 15.3148 15.322 24.6049
C 17.8357 15.3013 22.3934
C 17.5915 14.9474 27.1977
C 20.1063 15.3615 24.7106
C 22.5296 15.4457 22.4926
C 27.2284 15.4613 22.4987
C 22.5511 15.517 27.0989
C 25.1401 15.3485 24.9781
C 27.3289 15.4695 28.0057
C 29.5368 15.1832 25.1434
C 15.3529 17.6379 22.3736
C 15.37 17.5562 27.2866
C 15.2203 20.0781 24.7541
C 19.9455 17.7803 22.4152
C 17.6281 19.9258 22.1626
C 17.6343 17.5959 24.7608
C 20.0237 17.6178 27.1901
C 17.6517 19.9109 27.0837
C 20.0954 19.9875 24.8224
C 24.895 17.8219 22.6418
C 22.4095 20.197 22.3547
C 27.1701 20.0487 22.6627
C 22.6087 17.811 24.8708
C 27.4597 17.7188 25.1463
C 24.9033 17.6937 27.3026
C 22.3897 20.0263 27.3472
C 25.0173 19.921 25.1146
C 27.4053 19.9293 27.4714
C 29.4353 17.8442 22.6393
C 29.884 17.6714 27.6691
C 29.7694 20.0036 25.1398
C 15.6361 22.5085 22.6373
C 15.53 27.1508 22.7605
C 15.4045 22.3603 26.9982
C 15.5519 24.8311 24.9116
C 15.3823 27.2674 27.4633
C 20.0632 22.3655 22.203
C 17.906 24.9518 22.4874
C 20.1582 27.0787 22.3382
C 18.1254 22.3427 24.9376
C 20.4403 22.5409 27.1524
C 17.8971 27.3917 25.0582
C 17.9142 24.8669 27.3278
C 20.2002 24.8142 24.8398
C 20.1977 27.3119 27.3976
C 24.9529 22.4412 22.5127
C 22.6828 24.6898 22.3352
C 27.1913 24.7563 22.4211
C 24.8836 27.1942 22.4879
C 22.5012 22.4351 24.7113
C 27.216 22.2793 24.9458
C 24.576 22.3217 27.3012
C 22.624 27.0068 24.8683
C 22.6183 24.7791 27.1392
C 25.171 24.9874 25.0535
C 27.5133 27.5051 25.0266
C 27.3859 25.0847 27.3127
C 25.2073 27.4185 27.2813
C 29.4907 22.3461 22.3925
C 29.5197 27.1168 22.5072
C 29.6826 22.5603 27.218
C 29.5695 24.7299 24.8606
C 29.7259 27.5043 27.5335
C 15.323 29.5367 25.006
C 17.823 29.603 22.6121
C 17.7596 29.8628 27.2613
C 20.3018 29.4279 24.773
C 22.449 29.4998 22.5097
C 27.2024 29.5951 22.5574
C 22.6128 29.3375 27.186
C 24.8165 29.4992 24.7776
C 27.4282 29.9284 27.727
C 29.5833 29.8353 25.0393
C 16.126 14.5412 31.1227
C 20.0174 15.53 29.6011
C 24.498 15.1613 29.849
C 29.9508 15.0874 30.1053
C 15.002 20.4157 29.4158
C 17.4396 17.6633 29.8053
C 20.0279 19.7887 29.6243
C 22.5649 17.7993 29.6385
C 27.4826 17.6638 30.2744
C 24.7885 20.2138 29.7983
C 29.9596 20.4676 29.4719
C 15.4473 24.5214 29.4413
C 17.981 22.5104 29.3248
C 17.6013 27.5891 29.6655
C 20.0796 24.8663 29.6392
C 22.0573 22.3468 30.0752
C 27.0569 22.4725 29.4328
C 22.4337 27.1132 29.6806
C 24.9804 25.0057 29.6308
C 27.3173 27.2343 29.813
C 29.6291 24.5259 29.7751
C 15.1628 30.175 29.2669
C 20.6793 29.7333 29.5848
C 24.6799 29.6001 29.8332
C 29.9771 31.6454 29.9912
172
TIMESTEP: 400	Temperature (K): 161.27344	Potential Energy: -43.246821
C 13.8005 13.5904 13.9791
C 20.0091 15.6899 15.5925
C 25.1446 15.4075 15.3633
C 29.5614 15.5004 16.4539
C 15.6538 20.1445 15.46
C 18.113 18.2196 15.6365
C 20.2701 20.6602 15.2632
C 22.4138 17.7214 15.2595
C 27.0914 17.916 15.4382
C 24.6174 20.2654 15.2523
C 29.2658 20.1119 15.5726
C 15.2452 25.2154 15.6894
C 17.5795 22.7369 15.3286
C 18.1165 26.8127 15.8552
C 20.4772 24.6066 15.448
C 22.6817 22.4359 15.3187
C 26.9071 22.3778 15.3636
C 22.6763 27.1212 15.3702
C 24.6044 24.7117 15.604
C 26.9804 26.8828 15.4625
C 29.2442 24.7894 15.1853
C 16.5738 29.8011 15.5234
C 20.1468 29.3167 15.5705
C 24.8229 29.4565 15.9045
C 29.2463 29.4132 16.1274
C 15.5519 15.3532 20.1662
C 18.1686 15.6936 18.0704
C 20.4284 15.2844 20.2934
C 22.5537 15.521 17.7085
C 26.7557 15.745 18.2118
C 24.4908 14.9249 20.2936
C 29.5188 15.6199 20.0914
C 15.7771 18.1277 18.1627
C 15.6636 20.44 20.2113
C 20.4318 18.0114 17.7201
C 18.028 20.3902 17.9054
C 17.9777 17.9359 20.4802
C 20.2433 20.1703 20.352
C 24.6508 18.1929 17.7713
C 22.4726 20.2003 17.8587
C 26.9646 20.3808 17.9394
C 22.5469 17.8704 20.2019
C 27.1819 17.8748 20.3591
C 24.7406 20.2323 20.1886
C 29.3935 18.1954 18.0469
C 29.661 20.2097 20.4134
C 15.3757 22.5868 17.7338
C 15.3305 27.2772 18.2597
C 15.5553 24.5524 20.1271
C 20.2493 22.4685 17.8438
C 17.9042 24.6383 18.0361
C 20.3964 27.1859 17.9298
C 18.0161 22.5021 20.2149
C 17.8508 27.1352 20.5099
C 20.3186 24.936 20.3217
C 24.6806 22.4616 17.8762
C 22.4636 24.9584 18.0095
C 26.908 24.6193 17.6739
C 24.7296 27.0315 17.8901
C 22.5916 22.4181 20.3932
C 27.1457 22.423 20.2553
C 22.5438 27.1074 20.2663
C 24.7831 24.7291 20.1419
C 27.0745 26.9645 20.1073
C 29.4866 22.4369 17.7275
C 29.4022 26.8222 17.8949
C 29.5519 24.555 20.1798
C 15.6146 29.8843 20.2181
C 18.3267 29.4072 18.1403
C 20.3783 29.5575 20.6564
C 22.2777 29.8853 17.9867
C 27.0387 29.2004 18.1092
C 24.7916 29.3381 20.0802
C 29.7638 29.4657 19.8525
C 15.581 15.2994 24.4982
C 17.9648 15.4864 22.3195
C 17.9148 15.4198 26.9383
C 20.2931 15.357 24.6633
C 22.5332 15.498 22.5929
C 27.0372 15.4872 22.3896
C 22.6078 15.2855 27.0754
C 24.7249 15.4924 24.5999
C 27.0011 15.5082 26.9126
C 29.4925 15.6355 24.879
C 15.4337 17.9082 22.3325
C 15.2491 17.9237 26.7112
C 15.3665 20.2898 24.5718
C 20.268 17.8019 22.5319
C 17.9364 20.2793 22.6128
C 17.8237 17.833 24.6119
C 20.3845 17.6947 27.0543
C 17.7573 20.2453 26.9973
C 20.3195 20.1886 24.8531
C 24.7145 17.798 22.3619
C 22.5301 20.162 22.5936
C 27.1602 20.0761 22.6152
C 22.5874 17.9778 24.8464
C 26.9672 17.8391 24.7417
C 24.7277 17.7862 26.9887
C 22.2877 20.1576 27.1316
C 24.8531 20.2331 24.8262
C 26.9803 20.3916 27.1096
C 29.77 17.9037 22.43
C 29.1869 18.0188 27.203
C 29.5375 20.2983 24.7657
C 15.2084 22.6868 22.4891
C 15.3574 27.2765 22.523
C 15.3955 22.562 27.3609
C 15.2096 24.6633 24.8144
C 15.6524 26.8575 27.0138
C 20.1451 22.4508 22.5332
C 17.7027 24.8178 22.5461
C 20.0162 27.2457 22.7514
C 17.803 22.4173 24.9208
C 20.158 22.4624 27.0917
C 17.7665 27.2205 24.7223
C 17.9151 24.6242 27.1214
C 20.0888 24.7646 24.843
C 20.4933 27.2915 26.8738
C 24.9391 22.5708 22.6065
C 22.5829 24.7893 22.7551
C 27.1628 24.8092 22.5233
C 24.9458 27.2417 22.5415
C 22.5163 22.5113 24.69
C 27.0449 22.557 24.8877
C 24.6091 22.6552 27.1756
C 22.7236 27.3347 24.7134
C 22.3147 24.7189 27.2329
C 24.918 24.8608 24.8724
C 27.3957 27.1037 24.5516
C 27.1378 24.6264 27.0898
C 24.6283 27.1316 27.3037
C 29.6173 22.4252 22.5598
C 29.5239 26.897 22.2984
C 29.4847 22.5139 27.295
C 29.6546 24.6222 24.7472
C 29.464 27.0447 27.1291
C 15.409 29.6086 25.4288
C 17.7093 29.6917 22.6371
C 18.3222 29.6339 26.7034
C 20.5513 29.8023 24.5896
C 22.8768 29.7742 22.3981
C 27.4009 29.4118 22.1508
C 22.7716 29.7456 27.171
C 25.0935 29.718 24.4937
C 27.1022 29.2657 27.0595
C 29.4032 29.4747 24.962
C 17.3053 14.832 30.5649
C 20.4856 15.3173 29.3607
C 24.9267 15.5886 29.5577
C 28.8758 15.7375 29.4146
C 15.1262 19.8275 29.395
C 18.2104 17.8755 29.1642
C 20.1108 20.3382 29.5241
C 22.5157 17.798 29.5334
C 26.6112 18.1904 29.1862
C 24.5741 20.329 29.4172
C 29.6994 20.2603 29.6984
C 15.5942 25.1459 29.6356
C 17.4218 22.0524 29.8176
C 18.1446 26.9581 29.3294
C 20.1199 24.4973 29.6769
C 22.5066 22.4552 29.6529
C 26.9771 22.4989 29.7089
C 22.209 26.9157 29.6254
C 24.5097 24.6779 29.438
C 27.1494 27.0343 29.3328
C 29.3051 24.7263 29.5543
C 15.4651 29.5683 28.9325
C 20.1729 29.436 29.4865
C 25.0662 29.6702 29.4814
C 28.7163 31.2846 28.6752
172
TIMESTEP: 500	Temperature (K): 115.34404	Potential Energy: -41.870399
C 13.8123 13.6445 14.1392
C 20.6616 14.9605 14.8938
C 24.2886 15.5025 14.8526
C 29.9393 14.7483 15.5773
C 15.6778 20.3028 15.1467
C 17.7919 16.6543 14.6529
C 19.5683 19.7656 15.0462
C 22.4733 17.8542 15.1997
C 27.3732 17.2957 15.6267
C 24.9277 19.866 15.3579
C 29.5513 19.8644 14.8373
C 15.0764 24.8619 15.5758
C 17.7117 22.6328 15.4314
C 17.4795 27.0579 14.7469
C 20.1563 25.0713 15.5463
C 22.3924 22.1334 15.52
C 27.4604 22.3794 15.1501
C 22.6325 27.5393 15.4537
C 25.0691 25.2614 15.4652
C 27.7029 27.501 15.5897
C 29.7348 24.8139 15.0201
C 16.068 30.3081 14.8229
C 19.6804 29.5841 15.3396
C 24.7306 29.9036 14.8825
C 30.4476 29.5682 15.0956
C 15.1578 15.508 20.2546
C 17.8165 14.9331 17.3918
C 19.8573 15.438 19.8866
C 22.4028 15.3353 17.6656
C 27.0 14.5679 17.6317
C 24.922 15.5645 20.0771
C 29.8257 15.183 19.299
C 15.2929 17.1286 17.019
C 15.1214 19.6442 19.7625
C 19.9283 17.4412 17.3285
C 17.4736 19.8821 17.7408
C 17.653 17.6491 19.9815
C 19.9654 20.2727 20.0091
C 24.8517 17.6834 17.6003
C 22.3846 20.0009 17.888
C 27.3719 20.0596 17.7968
C 22.3619 17.7512 20.2593
C 27.2004 17.6117 20.0616
C 24.9253 20.0461 20.0597
C 30.0957 17.9687 17.474
C 29.5701 20.2668 20.2096
C 15.4121 22.7148 17.9362
C 15.7298 27.8431 17.3578
C 15.3934 25.089 20.2849
C 20.1907 22.4721 17.6634
C 17.6683 25.1652 18.0146
C 19.7664 27.7008 17.7771
C 17.6747 22.7138 20.2369
C 17.5839 27.5815 20.2299
C 20.1099 24.9658 19.9863
C 24.7786 22.562 17.6182
C 22.556 25.1291 17.5576
C 27.3895 24.9003 17.6499
C 25.1606 27.7206 17.775
C 22.4232 22.6897 19.8597
C 27.3098 22.6812 20.2277
C 22.5071 27.0363 20.1015
C 24.824 24.92 19.9812
C 27.4609 27.1516 19.8996
C 29.9051 22.3269 17.4611
C 30.3913 27.0043 17.2852
C 29.8525 24.7664 20.101
C 15.5888 30.1216 20.2778
C 17.9304 30.3852 17.8157
C 19.9933 30.246 20.2651
C 22.5897 29.6729 17.9669
C 27.6776 29.8853 17.7083
C 25.35 29.7852 20.2004
C 30.1753 29.203 19.9513
C 15.5877 14.9568 24.9319
C 17.812 15.291 22.2822
C 17.9288 15.1683 27.388
C 20.1296 15.0757 24.9839
C 22.0803 15.2899 22.5623
C 27.4935 15.109 22.2482
C 22.615 15.2321 27.0927
C 24.9729 15.2174 24.6012
C 27.3658 15.3554 27.231
C 30.1218 15.3514 24.6572
C 15.2332 17.8392 22.7106
C 15.2747 17.1487 27.6398
C 15.1979 19.7814 25.2515
C 19.914 17.7021 22.4111
C 17.6329 20.0896 22.4005
C 17.7319 17.4766 24.7384
C 19.8984 17.5858 27.2675
C 17.6989 20.0047 27.4388
C 20.0179 19.9954 25.0901
C 24.8208 17.7702 22.4402
C 22.2162 20.1616 22.702
C 27.1465 20.0458 22.5122
C 22.4098 17.6644 25.1107
C 27.1128 17.5029 24.8832
C 24.9492 17.618 27.334
C 22.5882 20.3428 27.4281
C 24.8041 20.089 25.0453
C 27.3724 20.2548 27.1802
C 29.6337 17.7851 22.3729
C 29.8338 17.4268 27.8546
C 29.4865 19.9429 24.8925
C 15.2579 22.4041 22.5841
C 15.2133 27.5702 22.4834
C 15.1341 22.7519 27.445
C 15.3608 24.8854 24.7866
C 14.7612 26.9238 27.4833
C 19.7872 22.4637 22.6064
C 17.6256 25.0637 22.5877
C 19.9675 27.3443 22.762
C 17.577 22.4103 24.9043
C 19.994 22.4737 27.3573
C 17.4244 27.3462 25.21
C 17.4121 24.99 27.4212
C 19.8412 24.8338 25.1533
C 20.2271 27.426 27.5291
C 24.9093 22.4516 22.3139
C 22.2221 24.9351 22.6344
C 27.4107 25.1441 22.466
C 24.7137 27.3123 22.3045
C 22.2652 22.6072 24.9002
C 27.1487 22.5533 24.9451
C 24.8344 22.6854 27.3916
C 22.5524 27.2249 25.0258
C 22.195 24.7338 27.5772
C 24.7761 25.0192 24.9038
C 27.1899 27.2661 24.9969
C 27.4238 25.1841 27.646
C 25.0511 27.2728 27.4479
C 29.9336 22.6693 22.7752
C 30.0574 27.1979 22.8535
C 29.8152 22.5661 27.2039
C 29.5349 25.1089 25.1464
C 30.1191 27.3075 27.643
C 14.845 29.3908 25.1167
C 17.6077 29.8276 22.6614
C 17.55 30.0215 27.2833
C 20.0912 29.5751 24.9424
C 22.4399 29.5152 22.3662
C 27.7558 29.4581 22.4991
C 22.5566 29.8155 27.184
C 25.1617 29.6595 24.9916
C 27.3604 29.5479 27.5337
C 29.6239 29.4823 25.1983
C 16.9236 13.7594 30.6729
C 20.2099 15.2188 29.4251
C 25.0453 15.0196 29.4967
C 29.518 14.4448 30.0201
C 14.8041 20.0516 29.1047
C 17.5566 17.6827 29.9957
C 20.1603 20.2449 29.8051
C 22.6064 17.5849 29.4936
C 27.2423 17.4943 29.934
C 25.0667 20.0604 29.8379
C 29.5568 20.2308 29.6208
C 15.5717 24.7698 30.1883
C 17.8789 22.4816 29.5366
C 17.3852 27.6385 29.3928
C 19.6291 25.3631 29.869
C 22.5976 22.5313 29.852
C 27.4631 22.5301 29.6792
C 22.3383 27.8982 29.6807
C 24.8215 25.0152 29.7911
C 27.4543 27.693 30.6468
C 30.0061 24.7967 29.6382
C 15.3892 30.6017 30.0222
C 20.1435 30.5235 29.4341
C 24.9008 29.9088 29.5945
C 28.9425 32.3166 28.7615
172
TIMESTEP: 600	Temperature (K): 181.61514	Potential Energy: -42.96462
C 14.4276 14.3011 14.8072
C 20.5642 15.4066 15.4871
C 24.2955 15.7239 15.55
C 29.2445 15.1096 15.9903
C 16.0579 19.8577 15.1758
C 18.4476 17.69 15.2351
C 19.7936 20.4498 15.4164
C 22.2109 18.2156 15.3349
C 27.2653 17.7553 15.8221
C 24.8332 20.2041 15.3551
C 29.0691 20.6203 15.0978
C 15.1756 24.983 15.5848
C 17.3948 22.7579 15.3777
C 17.8013 26.8991 15.1891
C 20.0036 24.9032 15.604
C 22.2903 22.4132 15.1014
C 26.9099 22.8358 15.4133
C 22.7429 27.5431 15.8723
C 24.2868 24.8256 15.4625
C 27.1392 27.262 15.4493
C 29.689 24.7133 15.5189
C 16.4158 30.0685 14.2515
C 19.8137 29.4853 14.9173
C 25.2413 29.6618 16.0309
C 30.353 28.8317 15.4953
C 15.4085 15.7016 19.8441
C 18.2657 15.0973 18.0272
C 20.3288 15.4212 20.2636
C 22.4381 15.188 18.0656
C 26.7964 15.1729 17.8485
C 24.5992 15.618 20.1785
C 29.5176 15.6067 19.7505
C 16.3948 17.6466 17.5612
C 15.5418 19.9901 20.2115
C 20.1763 17.8712 17.8758
C 17.8869 20.5177 17.9299
C 17.8659 17.8039 20.4717
C 20.2213 20.3412 20.0637
C 24.5273 18.0291 17.6288
C 22.3189 20.2924 17.7407
C 27.0774 20.2929 17.9108
C 22.4375 17.9989 19.9981
C 27.0126 17.7842 19.8546
C 24.7668 20.3493 20.1134
C 29.9518 18.3025 17.4808
C 29.7818 20.2158 20.0473
C 15.1341 22.1881 17.7642
C 15.7679 27.4571 17.5755
C 15.2906 24.5444 20.1328
C 20.1042 22.5667 17.7539
C 17.8022 24.6643 17.9101
C 19.9473 27.1025 17.8727
C 17.7056 22.4395 20.4017
C 17.8604 27.1563 20.0816
C 20.1317 24.8459 20.1799
C 24.8245 22.6967 17.8327
C 22.4217 25.0525 17.9752
C 27.0302 24.9838 18.0264
C 24.8588 27.1334 18.0187
C 22.5526 22.6143 20.2532
C 27.13 22.6367 20.1517
C 22.5492 27.2148 20.1569
C 24.7758 24.8042 20.2686
C 27.382 27.1898 20.351
C 29.3612 22.464 17.7906
C 29.7236 26.8059 17.9396
C 29.547 24.5479 20.0918
C 15.4284 29.5558 20.3242
C 17.5745 30.2855 17.4721
C 20.0368 29.3846 20.1295
C 22.5052 30.0533 17.6747
C 27.591 29.4463 17.9542
C 24.765 29.6661 20.4605
C 29.7899 29.5412 20.6301
C 15.1398 15.3025 24.8787
C 17.7326 15.347 22.6426
C 18.0961 15.4473 27.0562
C 20.3726 15.4033 24.8727
C 22.5456 15.6812 22.4314
C 27.2596 15.6596 22.4384
C 22.2995 15.3496 27.2834
C 24.9284 15.4122 24.6768
C 26.8255 15.4552 27.1249
C 29.3655 15.3098 24.7966
C 15.5035 17.7534 22.8138
C 15.3487 17.8645 27.2086
C 15.4252 20.5573 24.9648
C 20.0956 17.8025 22.581
C 17.7815 20.0493 22.7738
C 17.7527 17.7185 24.8214
C 20.2692 17.9127 27.2571
C 17.9632 20.3109 26.994
C 20.2387 20.0819 24.8869
C 24.804 18.0208 22.2633
C 22.3527 20.1839 22.5724
C 27.3158 20.1261 22.311
C 22.5352 17.8647 24.8873
C 27.2788 17.703 24.7836
C 24.4424 17.7458 27.2535
C 22.5633 20.3404 27.0983
C 24.8206 20.054 24.8861
C 27.0621 19.9335 27.22
C 29.5383 17.7619 22.2421
C 29.5942 17.4293 27.1963
C 29.7836 20.1362 24.5233
C 15.156 22.1883 22.484
C 15.4781 27.042 22.2758
C 15.5233 22.7041 27.3375
C 15.5067 24.5691 24.7309
C 15.7905 26.9142 26.9624
C 20.2495 22.4936 22.4527
C 17.9138 24.9223 22.4693
C 20.3329 27.1998 22.5658
C 18.0531 22.5903 24.5869
C 20.2224 22.4568 27.1825
C 17.9766 27.0871 24.7934
C 17.9582 24.8419 27.1737
C 20.2221 24.8865 24.687
C 20.0943 27.0711 27.2362
C 24.8501 22.2283 22.4517
C 22.5307 24.8595 22.3783
C 27.01 24.7772 22.5821
C 24.9431 27.217 22.4604
C 22.7074 22.5516 24.6355
C 27.2073 22.2146 24.8769
C 24.9665 22.4501 27.1238
C 22.6958 27.1615 25.0061
C 22.332 24.821 27.1257
C 24.854 24.9031 24.6947
C 27.4256 27.1011 25.0062
C 27.0599 24.5507 27.2103
C 24.9472 27.131 27.1221
C 29.6558 22.5554 22.4867
C 29.4755 26.8746 22.6975
C 29.3495 22.4361 27.5355
C 29.6036 24.4702 25.108
C 29.6123 26.8694 27.1799
C 14.8989 29.2542 24.5581
C 17.5486 29.4218 22.4774
C 17.2722 29.5416 26.7959
C 20.154 29.7082 25.0126
C 22.1892 29.8819 22.4701
C 27.3353 29.5192 22.5953
C 22.5921 29.3514 27.2017
C 24.9601 29.7794 24.9912
C 27.3475 29.5589 27.1291
C 29.8452 29.3982 24.6415
C 17.4535 13.7575 30.3046
C 20.2851 15.8062 30.2905
C 24.8456 15.0142 29.4673
C 28.9852 14.9035 29.1906
C 15.657 20.0696 29.5175
C 17.7306 17.8297 29.5233
C 20.548 20.2491 29.6695
C 22.89 17.5456 29.9608
C 26.8702 17.608 29.5651
C 24.7751 20.1656 29.5068
C 29.0576 19.9293 29.7838
C 15.6364 24.7428 29.8239
C 17.9588 22.3243 29.7627
C 17.6391 27.8069 29.5873
C 20.017 24.6685 29.5949
C 22.4586 22.6075 29.6589
C 26.8695 22.3363 29.8076
C 22.4285 27.0896 29.3777
C 24.8251 24.8 29.6255
C 27.005 26.9302 29.2849
C 29.3628 24.479 29.9199
C 15.6348 31.1626 30.336
C 19.949 30.0442 29.1206
C 24.7908 29.3501 29.7738
C 29.0722 32.7057 28.7333
172
TIMESTEP: 700	Temperature (K): 178.608	Potential Energy: -42.40841