172
TIMESTEP: 0	Temperature (K): 50.0	Potential Energy: -41.803497
C 15.0 15.0 15.0
C 20.0 15.0 15.0
C 25.0 15.0 15.0
C 30.0 15.0 15.0
C 15.0 20.0 15.0
C 17.5 17.5 15.0
C 20.0 20.0 15.0
C 22.5 17.5 15.0
C 27.5 17.5 15.0
C 25.0 20.0 15.0
C 30.0 20.0 15.0
C 15.0 25.0 15.0
C 17.5 22.5 15.0
C 17.5 27.5 15.0
C 20.0 25.0 15.0
C 22.5 22.5 15.0
C 27.5 22.5 15.0
C 22.5 27.5 15.0
C 25.0 25.0 15.0
C 27.5 27.5 15.0
C 30.0 25.0 15.0
C 15.0 30.0 15.0
C 20.0 30.0 15.0
C 25.0 30.0 15.0
C 30.0 30.0 15.0
C 15.0 15.0 20.0
C 17.5 15.0 17.5
C 20.0 15.0 20.0
C 22.5 15.0 17.5
C 27.5 15.0 17.5
C 25.0 15.0 20.0
C 30.0 15.0 20.0
C 15.0 17.5 17.5
C 15.0 20.0 20.0
C 20.0 17.5 17.5
C 17.5 20.0 17.5
C 17.5 17.5 20.0
C 20.0 20.0 20.0
C 25.0 17.5 17.5
C 22.5 20.0 17.5
C 27.5 20.0 17.5
C 22.5 17.5 20.0
C 27.5 17.5 20.0
C 25.0 20.0 20.0
C 30.0 17.5 17.5
C 30.0 20.0 20.0
C 15.0 22.5 17.5
C 15.0 27.5 17.5
C 15.0 25.0 20.0
C 20.0 22.5 17.5
C 17.5 25.0 17.5
C 20.0 27.5 17.5
C 17.5 22.5 20.0
C 17.5 27.5 20.0
C 20.0 25.0 20.0
C 25.0 22.5 17.5
C 22.5 25.0 17.5
C 27.5 25.0 17.5
C 25.0 27.5 17.5
C 22.5 22.5 20.0
C 27.5 22.5 20.0
C 22.5 27.5 20.0
C 25.0 25.0 20.0
C 27.5 27.5 20.0
C 30.0 22.5 17.5
C 30.0 27.5 17.5
C 30.0 25.0 20.0
C 15.0 30.0 20.0
C 17.5 30.0 17.5
C 20.0 30.0 20.0
C 22.5 30.0 17.5
C 27.5 30.0 17.5
C 25.0 30.0 20.0
C 30.0 30.0 20.0
C 15.0 15.0 25.0
C 17.5 15.0 22.5
C 17.5 15.0 27.5
C 20.0 15.0 25.0
C 22.5 15.0 22.5
C 27.5 15.0 22.5
C 22.5 15.0 27.5
C 25.0 15.0 25.0
C 27.5 15.0 27.5
C 30.0 15.0 25.0
C 15.0 17.5 22.5
C 15.0 17.5 27.5
C 15.0 20.0 25.0
C 20.0 17.5 22.5
C 17.5 20.0 22.5
C 17.5 17.5 25.0
C 20.0 17.5 27.5
C 17.5 20.0 27.5
C 20.0 20.0 25.0
C 25.0 17.5 22.5
C 22.5 20.0 22.5
C 27.5 20.0 22.5
C 22.5 17.5 25.0
C 27.5 17.5 25.0
C 25.0 17.5 27.5
C 22.5 20.0 27.5
C 25.0 20.0 25.0
C 27.5 20.0 27.5
C 30.0 17.5 22.5
C 30.0 17.5 27.5
C 30.0 20.0 25.0
C 15.0 22.5 22.5
C 15.0 27.5 22.5
C 15.0 22.5 27.5
C 15.0 25.0 25.0
C 15.0 27.5 27.5
C 20.0 22.5 22.5
C 17.5 25.0 22.5
C 20.0 27.5 22.5
C 17.5 22.5 25.0
C 20.0 22.5 27.5
C 17.5 27.5 25.0
C 17.5 25.0 27.5
C 20.0 25.0 25.0
C 20.0 27.5 27.5
C 25.0 22.5 22.5
C 22.5 25.0 22.5
C 27.5 25.0 22.5
C 25.0 27.5 22.5
C 22.5 22.5 25.0
C 27.5 22.5 25.0
C 25.0 22.5 27.5
C 22.5 27.5 25.0
C 22.5 25.0 27.5
C 25.0 25.0 25.0
C 27.5 27.5 25.0
C 27.5 25.0 27.5
C 25.0 27.5 27.5
C 30.0 22.5 22.5
C 30.0 27.5 22.5
C 30.0 22.5 27.5
C 30.0 25.0 25.0
C 30.0 27.5 27.5
C 15.0 30.0 25.0
C 17.5 30.0 22.5
C 17.5 30.0 27.5
C 20.0 30.0 25.0
C 22.5 30.0 22.5
C 27.5 30.0 22.5
C 22.5 30.0 27.5
C 25.0 30.0 25.0
C 27.5 30.0 27.5
C 30.0 30.0 25.0
C 15.0 15.0 30.0
C 20.0 15.0 30.0
C 25.0 15.0 30.0
C 30.0 15.0 30.0
C 15.0 20.0 30.0
C 17.5 17.5 30.0
C 20.0 20.0 30.0
C 22.5 17.5 30.0
C 27.5 17.5 30.0
C 25.0 20.0 30.0
C 30.0 20.0 30.0
C 15.0 25.0 30.0
C 17.5 22.5 30.0
C 17.5 27.5 30.0
C 20.0 25.0 30.0
C 22.5 22.5 30.0
C 27.5 22.5 30.0
C 22.5 27.5 30.0
C 25.0 25.0 30.0
C 27.5 27.5 30.0
C 30.0 25.0 30.0
C 15.0 30.0 30.0
C 20.0 30.0 30.0
C 25.0 30.0 30.0
C 30.0 30.0 30.0
172
TIMESTEP: 100	Temperature (K): 166.98033	Potential Energy: -44.263456
C 15.282 15.1924 16.0139
C 20.3279 15.8707 15.4859
C 24.7887 15.6059 15.459
C 29.0736 15.7573 15.3762
C 15.6182 20.5266 15.6603
C 18.0454 18.119 15.2341
C 20.3849 20.3061 15.5459
C 22.6317 18.0415 15.5732
C 26.9109 18.1768 15.6049
C 24.7479 20.4134 15.5384
C 29.3514 20.4325 15.5926
C 15.5024 24.5149 15.7813
C 18.1522 22.4227 15.6235
C 17.879 26.8395 15.34
C 20.3329 24.6765 15.6123
C 22.5459 22.6052 15.8254
C 27.0318 22.5172 15.8137
C 22.5398 26.8828 15.6755
C 24.7272 24.6494 15.8082
C 26.9525 27.159 15.6022
C 29.1612 24.7614 15.6154
C 15.2988 28.9931 15.4594
C 20.34 28.9708 15.4953
C 24.6566 29.383 15.8042
C 29.4558 29.3254 15.6908
C 15.4759 15.8006 20.2234
C 18.0287 15.6948 17.9014
C 20.4306 15.5074 20.3576
C 22.5385 15.572 18.0053
C 26.9505 15.6657 18.0896
C 24.6315 15.5123 20.3293
C 29.3429 15.6846 20.2839
C 15.5777 18.0893 17.9037
C 15.7445 20.3293 20.2291
C 20.3828 17.9484 17.9613
C 17.9521 20.2916 17.8838
C 17.9883 18.0084 20.2335
C 20.4163 20.184 20.1783
C 24.6753 17.9499 18.0052
C 22.5882 20.2081 17.907
C 26.9633 20.3417 18.0987
C 22.5908 17.9508 20.3463
C 26.9512 18.0459 20.4556
C 24.5885 20.2411 20.3601
C 29.3863 17.984 18.065
C 29.3505 20.2777 20.3137
C 15.662 22.4799 18.147
C 15.4954 26.9435 18.0639
C 15.6713 24.7534 20.4025
C 20.3215 22.4767 18.0406
C 17.9338 24.6125 18.0512
C 20.3242 26.9109 17.9947
C 18.0287 22.4298 20.3032
C 18.0682 26.9856 20.2428
C 20.251 24.6075 20.3753
C 24.6995 22.5149 18.2112
C 22.4891 24.7035 18.1548
C 27.0002 24.7429 18.121
C 24.6097 26.9748 18.1383
C 22.5347 22.5636 20.3652
C 27.0103 22.5313 20.4884
C 22.3979 26.9211 20.3051
C 24.6594 24.6971 20.4504
C 27.038 27.0898 20.3175
C 29.4167 22.6318 18.1574
C 29.3685 27.038 18.0302
C 29.341 24.8305 20.3694
C 15.9037 29.416 20.196
C 18.0146 29.4013 17.7205
C 20.2653 29.3831 20.3175
C 22.4578 29.3235 18.0451
C 26.9371 29.5203 18.2138
C 24.6352 29.4018 20.3463
C 29.4427 29.5268 20.3338
C 15.6078 15.6877 24.8038
C 17.905 15.5499 22.3228
C 17.8797 15.3605 26.9985
C 20.1985 15.5341 24.6928
C 22.4841 15.6936 22.546
C 27.0024 15.4966 22.507
C 22.4924 15.5536 26.9322
C 24.7209 15.5825 24.695
C 26.9611 15.498 26.9752
C 29.1339 15.8075 24.7255
C 15.5505 18.1068 22.4094
C 15.5148 18.0324 26.9535
C 15.6229 20.3183 24.5948
C 20.2503 17.9219 22.4073
C 18.0306 20.1506 22.4291
C 17.8862 17.9384 24.752
C 20.2281 17.9251 26.9764
C 17.9933 20.3043 26.9728
C 20.2707 20.2699 24.7127
C 24.6728 17.9615 22.5169
C 22.4799 20.2501 22.5558
C 26.9222 20.3069 22.5551
C 22.5182 17.972 24.6625
C 26.9059 17.9818 24.7736
C 24.6003 17.8128 26.9847
C 22.5451 20.2383 26.976
C 24.6476 20.3118 24.6761
C 26.9175 20.2557 26.9881
C 29.456 18.0089 22.4736
C 29.5732 17.9383 27.0903
C 29.3538 20.1789 24.8036
C 15.8085 22.4798 22.4892
C 15.5742 27.0596 22.383
C 15.4577 22.6158 26.9157
C 15.6015 24.7514 24.6505
C 15.7172 27.0124 27.0511
C 20.3008 22.4289 22.4161
C 18.0535 24.6929 22.4592
C 20.2709 26.9462 22.4992
C 18.043 22.4877 24.7175
C 20.2899 22.4973 27.056
C 17.9318 26.9334 24.7199
C 18.038 24.6659 27.0156
C 20.2458 24.6633 24.6699
C 20.3471 27.013 27.0143
C 24.6471 22.4599 22.6006
C 22.476 24.6826 22.5123
C 27.0621 24.7557 22.5508
C 24.7668 27.0557 22.5726
C 22.4515 22.5779 24.767
C 26.9942 22.4658 24.7031
C 24.7085 22.6165 26.9524
C 22.5468 26.9746 24.7197
C 22.5271 24.6839 26.9632
C 24.7608 24.7966 24.7083
C 26.9602 27.1008 24.6279
C 27.0643 24.859 26.9562
C 24.7377 26.9899 27.0039
C 29.4347 22.4448 22.5637
C 29.4741 27.0629 22.5388
C 29.415 22.55 26.8605
C 29.4486 24.6949 24.6558
C 29.5109 27.1013 26.9164
C 15.6621 29.3313 24.6687
C 18.0787 29.4012 22.4215
C 17.8865 29.6264 27.0012
C 20.4195 29.3992 24.6651
C 22.4734 29.2627 22.4058
C 27.0442 29.3935 22.4584
C 22.6938 29.3126 26.9959
C 24.6955 29.4832 24.594
C 26.9134 29.5818 27.102
C 29.296 29.6942 24.6609
C 15.5228 15.5092 29.3292
C 20.2446 15.5924 29.2176
C 24.6349 15.6787 29.5193
C 29.3317 15.415 29.1949
C 15.6843 20.2544 29.3494
C 17.9975 17.8309 29.4794
C 20.2252 20.2289 29.2578
C 22.5125 18.0801 29.4368
C 26.9382 17.93 29.4461
C 24.7042 20.4203 29.3285
C 29.3417 20.3193 29.4295
C 15.7491 24.7151 29.4839
C 18.0919 22.484 29.414
C 18.1771 26.9552 29.6174
C 20.3537 24.8106 29.354
C 22.4608 22.5014 29.3374
C 26.9819 22.5193 29.2891
C 22.6387 26.9566 29.4933
C 24.8285 24.6956 29.3134
C 27.1841 27.0771 29.3187
C 29.2943 24.6229 29.3441
C 15.5949 29.5409 29.3396
C 20.372 29.5308 29.2402
C 24.8621 29.29 29.5081
C 29.8475 29.6435 29.0243
172
TIMESTEP: 200	Temperature (K): 141.82704	Potential Energy: -43.430399
C 14.7419 15.1557 15.86
C 20.116 15.2355 15.01
C 25.1781 15.3727 15.3149
C 29.215 15.0475 14.7431
C 15.5876 20.2231 15.0336
C 17.6401 17.4779 15.4594
C 20.0546 19.9791 15.3136
C 22.5447 17.6628 15.3171
C 27.309 17.9472 15.1271
C 24.9193 20.3503 15.2193
C 29.9481 19.5353 15.3984
C 15.0308 24.9233 15.3791
C 17.8623 22.8184 15.0609
C 17.5563 27.0258 15.4519
C 20.4116 25.018 14.9395
C 22.3899 22.3544 14.7688
C 27.8681 22.3484 15.1484
C 22.8394 27.5669 15.2086
C 25.1353 24.5331 15.033
C 27.3483 27.1682 15.4193
C 30.013 25.0617 15.6431
C 14.7277 29.9086 15.3099
C 19.9817 29.3696 14.9873
C 25.6148 29.9751 15.3291
C 30.0254 29.7183 15.3881
C 15.3651 15.5146 19.6494
C 17.8817 15.2568 17.7529
C 20.1629 15.4211 20.234
C 22.2511 15.3714 17.5497
C 27.3805 15.0228 17.9418
C 24.8504 15.2846 20.1198
C 29.7894 15.1607 20.0797
C 15.3625 18.1621 17.7057
C 15.0745 20.3019 20.2823
C 20.0522 17.8988 17.7947
C 17.9766 20.5598 17.6511
C 17.6839 17.8631 20.1276
C 20.0603 20.1811 20.0547
C 24.9979 17.6853 17.6692
C 22.6748 20.0225 17.7451
C 27.4455 20.1129 17.7728
C 22.5089 17.7635 20.162
C 27.2873 17.6651 20.0254
C 24.9221 20.0249 20.2563
C 29.6678 17.4125 17.8649
C 29.7151 19.8523 20.1321
C 14.9967 22.4976 17.748
C 15.2101 27.1437 17.8101
C 15.1262 24.793 20.3046
C 20.4467 22.6931 17.5605
C 17.522 24.6455 17.8045
C 20.072 27.3104 17.6866
C 17.4381 22.4666 20.3428
C 17.6714 27.3951 19.9591
C 20.1466 24.905 20.0791
C 24.9048 22.459 17.7898
C 22.8034 24.9695 17.446
C 27.2839 24.9058 17.7015
C 25.0468 27.4286 17.6449
C 22.505 22.5978 20.0979
C 27.3678 22.3931 20.1201
C 22.359 27.4327 20.0238
C 24.9798 24.9296 20.1847
C 27.2389 27.4073 20.16
C 29.9429 22.4803 17.9539
C 29.8375 27.4072 17.816
C 29.6352 24.955 20.1168
C 15.269 30.0165 20.2861
C 17.6033 29.5591 17.5011
C 20.0295 29.8031 19.711
C 22.4306 29.9644 17.456
C 27.3575 29.9022 17.9437
C 24.6978 29.9309 19.8991
C 29.6862 29.8103 20.2115
C 15.5951 14.855 25.2484
C 17.7037 15.1543 22.553
C 17.8326 15.2965 27.4578
C 20.1039 15.3482 24.8245
C 22.4477 14.9558 22.3673
C 27.605 15.3208 22.5519
C 22.3463 15.2142 27.3344
C 24.8908 15.1755 24.7276
C 27.3005 15.3215 27.0535
C 29.8573 14.8854 25.2856
C 15.3369 17.4609 22.6542
C 15.1413 17.6053 27.0554
C 15.222 20.3201 24.917
C 20.0361 17.6727 22.4968
C 17.5621 20.0587 22.5441
C 17.8368 17.835 24.9425
C 20.1769 17.7555 27.1605
C 17.7067 20.1504 27.2422
C 20.0532 20.2121 24.8267
C 24.9113 17.6225 22.3737
C 22.4487 20.0785 22.4206
C 27.3982 20.021 22.5418
C 22.5855 17.5262 24.7498
C 27.2481 17.7074 24.9376
C 24.9216 17.6399 27.2446
C 22.5757 20.1897 27.2914
C 24.8533 20.1256 24.8501
C 27.2256 20.0083 27.3693
C 29.8547 17.5685 22.7317
C 29.7515 17.6532 27.1258
C 29.7927 20.1137 24.9801
C 14.8341 22.5326 22.6991
C 15.2322 27.472 22.4625
C 15.3398 22.4841 27.4518
C 15.1369 24.81 24.8555
C 14.9825 27.2521 27.3867
C 19.9963 22.5297 22.4141
C 17.6733 25.1385 22.2957
C 20.0849 27.5233 22.5768
C 17.7045 22.619 24.8701
C 20.1708 22.5838 27.3596
C 17.6381 27.2391 24.8553
C 17.6319 24.8995 27.1696
C 20.144 24.9053 24.7279
C 20.1908 27.405 27.3984
C 24.768 22.513 22.4444
C 22.5261 24.9187 22.4141
C 27.2587 24.9418 22.5612
C 24.7332 27.7255 22.3006
C 22.4901 22.469 24.7941
C 27.3164 22.4164 24.9495
C 24.874 22.4844 27.544
C 22.6869 27.3181 24.8703
C 22.554 24.9576 27.3013
C 24.8389 24.828 24.8142
C 27.0507 27.2005 24.7936
C 27.2218 24.8428 27.3496
C 24.922 27.1308 27.4255
C 29.8747 22.2315 22.2555
C 29.6549 27.2636 22.4938
C 29.9423 22.4192 27.474
C 29.6898 24.6082 24.6272
C 29.7032 27.0078 27.0366
C 15.0251 29.5228 25.0953
C 17.5382 29.7812 22.9044
C 17.7308 29.6111 27.0129
C 20.4415 29.8968 24.9361
C 22.1614 30.2587 22.1977
C 27.3023 29.7643 22.6053
C 22.4066 29.9396 27.6026
C 24.2745 30.0035 24.6017
C 26.8136 29.944 26.9541
C 29.523 29.5693 25.181
C 15.2403 14.8496 30.0236
C 19.8605 15.3266 30.0586
C 25.0537 15.1338 29.6255
C 30.0081 14.9943 29.5454
C 15.2378 19.9722 29.6279
C 17.5186 17.6354 29.9897
C 20.1989 20.0608 29.8622
C 22.5951 17.6755 29.7788
C 27.3511 17.5546 29.6515
C 24.8128 20.2077 29.7901
C 29.7734 19.8713 29.7607
C 15.0453 24.8497 29.7937
C 17.6616 22.5497 29.6581
C 17.8411 27.1198 29.6716
C 20.3761 24.8245 29.7461
C 22.4672 22.4783 30.2249
C 27.5363 22.5969 29.829
C 22.6091 27.4547 29.7112
C 24.7475 24.9395 29.7735
C 27.5658 27.3772 29.5719
C 30.001 25.1676 29.6598
C 14.7901 29.5798 30.2536
C 19.4768 30.0734 29.6545
C 25.2335 29.6053 29.8926
C 29.8158 29.7703 29.128
172
TIMESTEP: 300	Temperature (K): 145.42733	Potential Energy: -43.320026
C 14.989 15.3555 15.7921
C 20.3616 15.6829 15.351
C 24.6516 14.8676 15.1627
C 28.8039 14.3573 14.4165
C 15.6315 20.1448 14.9227
C 17.5719 17.6624 15.2852
C 19.9652 20.4634 15.3442
C 22.7571 17.7437 15.3863
C 27.4739 17.5247 15.2837
C 25.1749 19.8852 15.3557
C 30.1376 20.4961 15.6298
C 14.9372 25.0694 15.7705
C 17.6353 22.7185 15.5379
C 17.3371 27.4678 15.2522
C 19.9509 24.9944 15.2048
C 22.717 22.5325 15.424
C 27.2471 22.3583 15.6699
C 22.7129 27.0667 15.0643
C 25.0623 24.845 15.3166
C 27.883 27.5445 15.2339
C 29.9031 24.6984 15.7203
C 14.4165 30.5428 15.6817
C 20.1591 29.2454 15.3597
C 25.1037 29.7633 15.2782
C 30.2193 30.1624 15.2357
C 14.9559 15.7932 19.9877
C 17.672 15.3593 17.7732
C 20.3115 15.5702 20.071
C 22.578 15.5445 17.7929
C 27.3462 15.0091 17.6518
C 24.8242 15.1808 20.3816
C 29.5139 15.2625 20.4086
C 15.2362 18.2742 17.6015
C 15.4831 20.1746 20.2241
C 20.11 17.7284 17.6764
C 17.8792 20.0057 17.5389
C 17.7014 17.7702 19.9586
C 20.0548 20.0736 20.0337
C 25.144 17.4584 17.6858
C 22.4518 20.0116 17.6124
C 27.5711 19.7656 17.6858
C 22.451 17.91 20.2919
C 27.363 17.5907 20.0237
C 25.0869 19.9077 19.9598
C 30.0393 17.2405 17.8038
C 29.921 20.1829 20.5632
C 15.4705 22.4488 17.9681
C 14.7925 27.7164 17.5249
C 15.3369 25.0173 19.8373
C 20.1362 22.423 17.7568
C 17.5917 25.2051 17.6209
C 20.2285 27.1616 17.6571
C 17.9029 22.67 20.0088
C 17.6571 27.1695 20.0378
C 20.2592 24.8569 20.0603
C 24.9893 22.3242 17.8201
C 22.3654 24.71 17.5667
C 27.5208 24.8999 17.8097
C 25.3086 27.4007 17.3557
C 22.4711 22.4942 20.1188
C 27.1619 22.5456 20.0375
C 22.6366 27.0901 19.7638
C 24.9155 24.9762 19.655
C 27.393 27.1866 20.0873
C 29.8827 22.3671 18.138
C 30.1013 27.2565 18.0197
C 29.6758 24.9032 20.3001
C 15.3992 29.7551 20.171
C 17.3125 29.9557 17.3554
C 19.8191 30.0297 19.7374
C 22.7385 29.3941 17.4659
C 27.6771 30.0138 17.5343
C 24.9927 29.603 19.9385
C 29.5708 29.6319 20.4751
C 15.6813 14.9904 24.8573
C 17.6385 15.7268 22.4083
C 18.0335 14.8944 27.4605
C 20.3476 15.352 24.7957
C 22.4834 15.6961 22.5274
C 26.9944 15.3391 22.6689
C 22.4854 15.4262 27.3207
C 24.7543 15.3481 25.0155
C 27.5732 14.894 27.2186
C 29.6428 15.2824 24.5301
C 15.4595 18.0062 22.525
C 15.4828 17.2113 27.4774
C 15.3521 20.0298 25.003
C 20.0021 17.9665 22.4289
C 17.8981 20.2525 22.3712
C 17.7911 17.6236 24.9882
C 20.1301 17.7866 27.3964
C 17.576 19.8957 27.4749
C 19.86 20.1276 25.0774
C 24.9665 17.8474 22.447
C 22.6392 20.2359 22.6031
C 27.3426 20.1159 22.3961
C 22.5835 17.8977 24.9863
C 27.3499 17.4771 25.1644
C 25.1422 17.6413 27.4343
C 22.4802 20.2003 27.1946
C 25.0614 19.9323 24.9502
C 27.5147 20.0524 27.1656
C 29.4083 17.5872 22.5751
C 30.0226 17.4353 27.0401
C 29.7658 20.0201 24.7047
C 15.6039 22.6097 22.2824
C 15.6105 27.0508 22.3964
C 15.4158 22.4666 27.1799
C 15.3131 24.9203 24.7342
C 15.0741 27.1867 27.3381
C 20.1869 22.4225 22.5685
C 18.0015 24.9283 22.5735
C 20.1983 27.388 22.3002
C 17.6337 22.4477 24.9219
C 19.9916 22.6461 27.364
C 17.553 27.3165 24.9326
C 17.683 25.0527 27.265
C 20.0347 25.0648 25.0808
C 19.8279 27.4245 27.4931
C 24.9177 22.6148 22.402
C 22.4581 24.785 22.3392
C 27.0484 24.9963 22.4838
C 24.7237 27.0864 22.4524
C 22.5816 22.6189 25.026
C 27.0951 22.5279 24.807
C 24.9509 22.5011 27.1844
C 22.3355 27.2651 24.7647
C 22.4367 25.2237 27.1965
C 24.8601 25.1169 24.9512
C 27.2352 27.3642 25.0636
C 27.2377 24.8807 27.1826
C 24.8106 27.322 27.3622
C 29.4618 22.6759 22.4854
C 29.4011 27.3215 22.6242
C 29.636 22.5416 27.1633
C 29.4108 24.906 24.8485
C 29.7773 27.2619 27.1193
C 14.952 29.281 24.7739
C 17.6877 29.5905 22.2838
C 17.2263 29.9253 27.5308
C 20.1518 29.7136 24.6426
C 22.6558 29.3685 22.4589
C 26.8905 29.4876 22.5536
C 22.3111 29.7028 27.3095
C 24.828 29.2644 24.9281
C 27.2651 29.7571 27.2024
C 29.4188 29.7724 24.711
C 15.5133 14.581 30.4224
C 20.2968 15.8285 30.0494
C 24.7479 15.3186 29.5219
C 30.2319 14.9304 29.1838
C 14.8978 20.3852 29.397
C 17.3426 17.6371 30.298
C 20.0765 20.2642 29.8077
C 22.6377 18.0423 29.7321
C 27.5827 17.2905 29.8346
C 24.8336 20.1942 29.665
C 29.8359 20.2134 29.5179
C 15.4744 24.7793 29.6861
C 17.5978 22.3853 29.5784
C 17.5251 27.595 30.0538
C 19.9936 24.8623 29.8638
C 22.4163 22.7732 29.4965
C 27.2063 22.3113 29.4675
C 22.3712 27.2824 29.6894
C 24.8683 25.0325 29.5169
C 27.4111 27.2809 29.3791
C 29.2448 24.5366 29.6549
C 14.0498 28.8732 30.8491
C 19.9768 29.8829 29.5962
C 24.8481 29.6003 29.8354
C 29.8587 29.816 29.1865
172
TIMESTEP: 400	Temperature (K): 172.4981	Potential Energy: -43.640324
C 16.1278 15.4261 15.553
C 19.8833 15.3073 15.5598
C 24.9497 15.9402 15.73
C 27.6786 14.4142 15.0346
C 15.4559 20.2135 15.3637
C 17.8838 18.1159 15.4797
C 20.4916 20.3962 15.2122
C 22.4676 17.8444 15.5899
C 26.9829 18.2092 15.4518
C 24.8743 20.347 15.3232
C 29.6524 19.8898 15.8146
C 15.7068 24.7154 15.4493
C 17.9121 22.3536 15.115
C 18.0713 26.9479 15.5521
C 20.2633 24.6093 15.106
C 22.5183 22.4754 15.5226
C 27.3676 22.7088 15.5843
C 22.2897 26.95 15.5111
C 24.7499 24.7822 15.1239
C 27.3879 26.7084 15.577
C 29.9337 24.9262 15.4863
C 15.4696 29.818 17.116
C 20.2062 29.3821 15.415
C 25.0832 28.8952 15.2961
C 29.3183 29.3915 16.1942
C 15.3182 15.7074 20.2736
C 17.9129 15.8011 18.0294
C 20.1688 15.5163 20.2081
C 22.6249 15.4493 17.8156
C 26.9005 15.678 18.3085
C 24.6284 15.4645 20.222
C 29.3856 15.2909 20.2662
C 15.6711 18.1484 17.9293
C 15.328 20.1468 20.4199
C 20.4267 17.9161 17.8723
C 17.8561 20.2485 17.9598
C 17.8968 17.9882 20.3009
C 20.2167 20.2462 20.1041
C 24.7507 17.9753 18.0945
C 22.6639 20.2599 17.6554
C 27.2007 20.3458 17.9354
C 22.5712 17.95 20.1373
C 27.0632 17.7798 20.593
C 24.8253 20.1189 20.2657
C 29.4062 17.7286 18.1681
C 29.5289 20.1529 20.3257
C 15.5162 22.2711 17.938
C 15.8664 26.9158 18.0077
C 15.3918 24.5569 20.2466
C 20.067 22.4212 17.682
C 17.9086 24.5477 17.6584
C 20.2977 27.0878 17.9672
C 17.8727 22.5154 20.0511
C 17.8141 27.1003 20.4065
C 20.0852 24.7502 20.2592
C 24.807 22.6721 18.0872
C 22.4167 24.7266 17.7459
C 27.3116 24.756 18.0445
C 24.8372 26.8737 17.9473
C 22.3737 22.54 20.1717
C 27.267 22.5491 20.2817
C 22.4245 26.9729 20.3029
C 24.9674 24.8354 20.4428
C 27.2562 27.2976 20.4543
C 29.7914 22.5046 17.766
C 29.491 26.8531 18.1538
C 29.7078 24.7632 20.346
C 15.6567 29.7819 20.1542
C 18.1895 29.4782 18.0519
C 20.3073 29.3335 20.2859
C 22.5924 29.6659 17.5961
C 26.9538 29.2136 18.1051
C 24.5371 29.6681 20.363
C 29.551 29.7835 19.9325
C 15.5065 15.4456 24.9047
C 17.9142 15.2795 22.4994
C 18.1514 15.5005 26.7258
C 20.4584 15.4406 24.4896
C 22.4341 15.0964 22.266
C 26.8191 15.4655 22.7485
C 22.2882 15.2674 27.3086
C 24.3819 15.3434 24.8349
C 26.8641 15.5186 26.8858
C 29.3148 15.3616 24.8195
C 15.3931 18.006 22.7103
C 15.4987 18.1709 26.7491
C 15.2718 20.4066 24.7459
C 20.2214 17.9733 22.4027
C 17.8512 20.2809 22.4497
C 18.0346 17.9528 24.5257
C 20.2236 18.0441 27.1582
C 17.8657 20.3132 26.9674
C 20.0223 20.384 24.7715
C 24.585 17.8297 22.6292
C 22.3811 20.2831 22.5766
C 27.0394 20.1688 22.5346
C 22.3031 17.9034 24.86
C 26.8926 17.945 24.7592
C 24.5026 17.8284 27.0558
C 22.5552 20.2673 27.1836
C 24.6749 20.1993 24.7613
C 27.1167 20.3958 27.0492
C 29.8217 17.527 22.5371
C 29.4333 18.1382 26.7467
C 29.4532 20.2952 24.6596
C 15.423 22.4151 22.4525
C 15.1288 27.1989 22.1242
C 15.3264 22.5463 26.9744
C 15.3211 24.7913 24.6282
C 15.5211 27.0136 26.9332
C 20.1348 22.4569 22.5268
C 17.8398 24.619 22.4748
C 20.1062 27.0642 22.4494
C 17.6858 22.6221 24.8151
C 20.0363 22.6302 27.0907
C 17.7573 27.0294 24.6515
C 17.7384 24.747 27.238
C 20.0338 24.8972 24.6499
C 20.4126 27.1075 27.0965
C 24.8659 22.5365 22.4481
C 22.4425 24.7796 22.5436
C 27.3189 24.9786 22.569
C 24.8688 27.3284 22.4097
C 22.5 22.4621 24.8755
C 27.2552 22.6427 24.7893
C 24.8256 22.55 27.3237
C 22.4494 27.1996 24.6882
C 22.5819 24.7252 27.2304
C 24.7693 24.8396 24.814
C 27.0386 27.3158 24.5871
C 27.0803 24.908 27.1138
C 24.6451 27.0839 27.1364
C 29.771 22.6365 22.6345
C 29.7357 27.4548 22.4008
C 29.5854 22.6861 27.1082
C 29.7325 24.9052 24.7519
C 29.6297 27.2864 26.933
C 15.6341 29.3265 24.7059
C 18.0099 29.8774 22.3109
C 17.9466 29.5342 26.9139
C 20.1606 29.4202 24.5376
C 22.4613 29.8283 22.7595
C 27.2801 29.7731 22.4181
C 22.4786 29.5277 26.8976
C 24.7337 29.5416 24.7771
C 26.7265 29.3483 27.107
C 29.2723 29.7298 24.9691
C 16.5339 15.4873 29.7088
C 20.0621 15.6901 29.7745
C 24.9777 15.7239 29.5461
C 29.5409 15.5715 28.8672
C 15.2517 20.4029 29.2662
C 17.9489 18.3717 29.4278
C 20.4549 20.4347 29.5515
C 22.449 17.7512 29.4507
C 27.1582 17.9845 29.4652
C 24.602 20.2639 29.5291
C 29.6279 20.0619 29.1602
C 15.6644 24.2284 29.7745
C 17.9612 22.1532 29.644
C 18.1302 27.2139 29.2369
C 20.2023 24.6161 29.5194
C 22.7702 22.8017 29.9825
C 27.3947 22.473 29.6177
C 22.6253 27.1213 29.5771
C 24.9168 24.6718 29.5966
C 26.9438 27.22 29.5116
C 29.861 25.0485 29.1575
C 14.9558 27.5523 29.9312
C 20.1149 29.6099 29.2776
C 24.5999 29.5777 29.4299
C 29.3833 29.4553 29.3253
172
TIMESTEP: 500	Temperature (K): 128.79724	Potential Energy: -42.372265
C 16.048 14.6426 13.9886
C 20.2705 15.5806 15.1548
C 24.9385 14.9987 15.1773
C 28.3758 14.4524 13.9641
C 14.9581 20.0767 15.5153
C 17.5879 17.6954 15.1609
C 20.0882 19.8825 15.4731
C 22.7081 17.7208 15.1917
C 27.4774 17.2953 15.4902
C 25.2453 19.8297 15.3776
C 29.9903 20.3092 15.5406
C 15.8182 25.0388 14.861
C 17.7562 22.3093 15.665
C 17.6761 27.6267 15.4367
C 19.7203 25.0154 15.3282
C 22.2441 22.6426 15.2833
C 27.4748 22.4163 15.2813
C 22.4058 26.7658 15.0346
C 25.1532 24.9135 15.6368
C 27.482 27.4723 15.4472
C 29.9644 24.4919 15.4872
C 14.2055 30.1899 15.9288
C 20.1556 29.9078 15.1876
C 24.5204 29.5519 14.8201
C 30.0194 29.8188 15.4096
C 14.9851 14.9372 19.9576
C 17.3219 14.8529 17.4286
C 19.7265 15.1285 20.2231
C 22.289 15.5341 17.5968
C 27.4352 15.1431 17.82
C 24.8041 15.2791 19.8276
C 29.4447 15.0595 20.4678
C 15.0056 17.0783 17.0988
C 14.7938 19.7343 20.0955
C 19.8199 17.62 17.8031
C 17.5815 19.8615 17.6661
C 17.2157 17.2446 19.8565
C 20.0447 19.9405 20.201
C 25.0014 17.4322 17.5157
C 22.7403 20.1059 17.6467
C 27.3671 19.9737 17.7194
C 22.7728 17.9482 20.0789
C 27.3801 17.5876 19.9432
C 25.0027 20.0611 19.8639
C 29.89 17.6349 17.7029
C 29.8058 20.03 20.0852
C 15.0502 22.9666 17.6239
C 15.1348 27.2663 17.3402
C 15.5193 25.2605 20.0212
C 20.0186 22.5025 17.9143
C 17.751 25.1102 17.7206
C 20.2337 27.269 17.5074
C 17.5386 22.4897 20.0236
C 17.9529 27.481 19.9049
C 20.15 25.151 19.9525
C 25.0524 22.3862 17.6941
C 22.6038 24.8657 17.6142
C 27.4516 25.0027 17.6644
C 25.1084 27.6654 17.7854
C 22.5559 22.5118 20.1376
C 27.2743 22.512 20.0624
C 22.3999 27.4295 20.0791
C 25.0172 25.1499 20.0423
C 27.5012 27.5251 20.0238
C 29.6448 22.4334 17.9045
C 29.8637 27.3733 17.6651
C 29.5835 25.1684 20.1483
C 15.1434 29.3769 19.8438
C 17.3134 29.9427 17.4386
C 20.0727 29.866 19.956
C 22.6632 29.6265 17.4051
C 27.1253 30.3219 17.0678
C 24.8813 29.8638 20.3664
C 29.3925 29.8752 19.7787
C 14.6379 14.9957 24.9617
C 17.5195 14.9119 22.8251
C 17.4801 15.1554 26.9992
C 20.0334 15.73 25.0426
C 22.4887 15.6415 22.6455
C 27.0229 15.1184 22.5915
C 22.4689 15.5282 27.1623
C 25.0331 15.3274 25.0833
C 27.3412 14.9417 27.4136
C 29.6383 15.0232 24.7305
C 15.1662 17.3978 22.3624
C 15.102 17.3754 27.9074
C 15.1277 19.9111 24.983
C 19.9926 17.7576 22.6117
C 17.4319 20.0564 22.3183
C 17.5191 17.7946 24.8081
C 20.0199 18.1163 27.4345
C 17.4134 20.1462 27.1964
C 19.9157 20.218 24.8935
C 24.9562 17.6258 22.4709
C 22.6194 20.0477 22.4522
C 27.3226 20.1247 22.5368
C 22.4287 18.0444 25.109
C 27.2528 17.5601 25.1621
C 24.9637 17.6552 27.3406
C 22.792 20.0064 27.6887
C 24.9857 20.1364 24.9378
C 27.2772 20.0581 27.2849
C 29.4388 17.6621 22.4754
C 29.7279 17.3177 27.5178
C 29.8841 19.6854 25.2163
C 15.0303 22.207 22.309
C 15.7455 27.5243 22.3858
C 15.2648 22.5762 27.0792
C 15.4875 25.0486 24.9132
C 15.1447 27.0713 27.4629
C 20.1704 22.5007 22.3516
C 17.6574 24.8764 22.4079
C 20.262 27.3359 22.5098
C 17.5854 22.5842 24.7348
C 20.2502 22.3278 27.0936
C 17.6292 27.479 25.1
C 17.7232 24.8179 27.236
C 20.0585 25.0596 24.6614
C 20.1897 27.3229 27.3936
C 24.9764 22.6232 22.6267
C 22.7395 25.2365 22.5246
C 27.4429 25.0927 22.4841
C 25.0892 27.3844 22.5879
C 22.5978 22.4295 24.8634
C 27.3408 22.3283 24.9816
C 24.8334 22.5522 27.1222
C 22.6411 27.3453 24.8574
C 22.5037 24.7553 27.5354
C 25.1616 25.035 25.0324
C 27.6382 27.5974 25.1132
C 27.643 25.1048 27.274
C 25.2521 27.5651 27.3019
C 29.6277 22.401 22.4073
C 29.6038 27.4555 22.5014
C 29.8402 22.537 27.3694
C 29.7095 24.7942 24.7721
C 30.1034 28.2989 27.5421
C 15.4917 30.2057 24.7456
C 17.8744 29.6153 22.5324
C 17.5163 29.5441 27.5168
C 20.0982 29.7294 25.1966
C 22.7001 29.7212 22.675
C 27.3659 29.728 22.3632
C 22.686 29.6414 27.2051
C 25.1576 29.8386 24.8461
C 27.327 30.4103 27.6139
C 29.6291 30.3382 24.7734
C 15.6365 15.1897 30.2952
C 19.9848 15.3572 29.5416
C 24.9602 15.0359 29.8357
C 29.7738 15.1184 30.4689
C 15.2325 20.0782 29.6668
C 17.4974 18.05 29.7538
C 20.0751 20.1404 29.788
C 22.6697 17.8277 29.9083
C 27.3103 17.497 29.7186
C 25.1435 20.2042 29.8378
C 29.5239 20.1701 29.6265
C 15.3065 24.8936 29.4695
C 17.6213 22.4426 29.3739
C 17.6484 27.1476 29.7613
C 20.0697 24.8425 29.6498
C 22.6253 22.3407 29.7321
C 27.3026 22.5509 29.5478
C 22.7127 27.3676 29.4262
C 25.2943 25.2008 29.7126
C 27.5758 27.8324 29.7514
C 29.9366 24.6143 29.8694
C 14.3294 27.9383 30.8654
C 20.119 29.4331 29.8662
C 24.7678 29.7788 29.8074
C 30.3821 30.6118 30.4323
172
TIMESTEP: 600	Temperature (K): 191.60777	Potential Energy: -43.458986
C 16.9298 14.9719 14.7336
C 20.2445 15.4822 15.0871
C 24.8655 15.704 15.5198
C 27.9454 15.3644 13.746
C 14.9535 20.0593 16.1736
C 17.4738 18.0698 15.7581
C 20.3473 20.1692 15.7746
C 22.4014 17.8156 15.7345
C 27.2169 17.6565 15.9679
C 24.8733 20.1547 15.7889
C 29.6298 20.2241 15.6977
C 15.6739 24.6195 15.2085
C 17.8886 22.3969 15.5812
C 17.9227 27.6017 15.2404
C 20.0359 24.7929 15.2791
C 22.5127 22.437 15.4936
C 27.3456 22.5025 15.8006
C 22.2926 27.466 15.6353
C 25.1049 24.6225 15.0264
C 26.8189 27.2535 15.0652
C 29.35 25.2165 15.5021
C 14.7294 29.6849 15.9836
C 20.2644 29.9202 15.7992
C 24.7564 29.5794 15.2085
C 30.2855 29.6623 15.5909
C 15.9287 14.8266 20.0076
C 18.223 15.2229 17.7154
C 20.2097 15.1395 20.1569
C 22.5188 15.0436 17.7945
C 27.1734 15.2349 18.2731
C 24.7467 15.3473 20.1874
C 30.0164 15.441 20.0175
C 15.1188 17.5505 18.3708
C 15.2785 20.2644 19.9801
C 20.1951 17.6696 17.9757
C 17.8775 20.2689 18.0583
C 17.9236 17.5888 19.9438
C 20.0548 19.944 20.1494
C 24.8649 17.7748 17.936
C 22.5751 20.1401 17.9664
C 27.0575 20.0819 18.0927
C 22.4564 17.7225 20.1476
C 27.1614 17.749 20.2553
C 24.946 20.2554 20.2363
C 30.0172 17.7301 17.5958
C 29.6874 19.9707 20.1076
C 15.6211 22.7985 18.1655
C 15.626 27.0465 17.6229
C 15.1651 25.2626 20.6489
C 20.3169 22.5113 17.9497
C 17.8552 24.928 17.7958
C 20.0356 27.2393 17.9844
C 17.9654 22.6593 20.2124
C 17.7192 27.2414 20.2092
C 20.216 25.0412 20.211
C 24.8664 22.5598 17.9886
C 22.5018 24.7969 17.6441
C 26.9572 25.1131 17.9076
C 24.7158 27.2934 17.7581
C 22.3861 22.4222 20.2846
C 27.3131 22.3954 20.2228
C 22.6152 27.129 19.9926
C 24.8609 24.8058 20.3645
C 27.1722 27.2587 20.4259
C 29.7538 22.464 17.9835
C 29.3624 27.3298 17.8642
C 29.5599 24.8562 20.024
C 14.8193 29.1477 20.058
C 17.607 29.5312 17.8938
C 20.1736 29.7104 19.7803
C 22.9177 29.9009 17.6133
C 27.0454 29.5733 17.2909
C 24.916 29.5008 20.056
C 28.9377 30.0387 20.06
C 14.9774 15.7164 24.8858
C 17.7718 15.4998 22.4889
C 17.8312 15.7009 27.2214
C 20.0853 15.452 24.7522
C 22.4759 15.179 22.4652
C 27.0619 15.1381 22.5253
C 22.248 15.3945 26.8939
C 25.0703 15.4282 25.0297
C 27.5545 15.0063 27.4852
C 29.4189 15.2601 24.9839
C 15.4592 17.7345 22.1183
C 15.1297 18.1314 27.2905
C 15.2237 20.0292 24.3707
C 20.0293 17.6919 22.5486
C 17.6243 20.0582 22.3342
C 17.7549 17.812 24.6308
C 20.0666 17.7517 27.0369
C 17.76 20.2399 26.9272
C 20.166 20.0789 24.7782
C 24.8387 17.6469 22.49
C 22.538 19.9578 22.4179
C 26.9429 20.0367 22.4231
C 22.4855 17.8731 24.8187
C 27.2809 17.9047 24.8035
C 24.7087 18.0355 27.1154
C 22.3955 20.3045 27.3214
C 24.702 20.3032 24.7715
C 27.2859 20.1456 27.277
C 29.5022 17.4364 22.4622
C 29.3626 17.8605 27.246
C 29.6437 20.1445 24.8683
C 15.5941 22.3901 22.3277
C 15.7135 27.5302 22.7099
C 15.6383 22.508 27.0341
C 15.5054 24.9413 24.5767
C 15.7337 27.271 27.1418
C 20.1552 22.3967 22.5728
C 17.7912 24.9553 22.335
C 20.1493 27.4782 22.1802
C 17.8484 22.3084 24.6819
C 19.9906 22.4801 27.2523
C 18.215 27.2507 24.794
C 17.884 24.8819 27.0509
C 20.1851 24.6891 24.7995
C 20.3568 26.953 27.0687
C 24.7594 22.4615 22.3596
C 22.4273 24.9425 22.4605
C 27.3664 24.7317 22.5235
C 24.7171 27.1648 22.4536
C 22.4739 22.5143 24.7154
C 27.1815 22.4446 24.8767
C 24.8495 22.332 27.1662
C 22.3445 27.1021 24.7271
C 22.5092 24.7101 26.99
C 24.8352 24.8464 24.6046
C 27.0739 27.3097 24.6198
C 27.4772 24.9533 27.015
C 25.0295 27.072 26.9977
C 29.5911 22.2972 22.364
C 29.7573 27.3573 22.4094
C 29.5736 22.497 27.2094
C 29.6991 24.7223 24.7416
C 29.9233 27.7025 27.6437
C 16.5852 30.0458 24.8277
C 17.8396 29.9659 21.9743
C 18.3561 29.3397 27.4297
C 20.4206 29.7115 24.5431
C 22.7796 29.7359 22.351
C 26.7881 29.6994 22.695
C 22.1594 29.7017 27.1547
C 24.4302 29.5427 24.9521
C 27.3066 30.0997 26.8198
C 29.5983 29.4285 24.6628
C 15.4764 15.8584 30.4822
C 20.3336 14.6986 29.5313
C 24.7833 15.3105 29.1176
C 28.7335 15.3952 30.4881
C 15.4537 20.5803 29.6021
C 17.5122 18.1374 29.6453
C 19.9822 20.1051 29.4888
C 22.2095 17.7514 29.3099
C 26.7079 17.9777 29.5726
C 24.7173 20.2679 29.5021
C 29.7048 20.0974 29.8636
C 14.8801 24.4862 29.7612
C 17.7555 22.8704 29.7819
C 17.5803 26.7189 29.7444
C 20.1436 24.9357 29.3451
C 22.5758 22.685 29.4449
C 27.2773 22.4272 29.5323
C 22.8869 26.9776 29.3552
C 25.1304 24.627 29.273
C 27.4677 27.6187 29.9891
C 29.4132 24.8563 29.664
C 14.3759 27.7598 30.0897
C 20.4613 29.0704 30.0377
C 24.6966 29.4885 29.267
C 30.8362 30.9308 30.1386
172
TIMESTEP: 700	Temperature (K): 183.37877	Potential Energy: -42.869172