172
TIMESTEP: 0	Temperature (K): 50.0	Potential Energy: -41.803497
C 15.0 15.0 15.0
C 20.0 15.0 15.0
C 25.0 15.0 15.0
C 30.0 15.0 15.0
C 15.0 20.0 15.0
C 17.5 17.5 15.0
C 20.0 20.0 15.0
C 22.5 17.5 15.0
C 27.5 17.5 15.0
C 25.0 20.0 15.0
C 30.0 20.0 15.0
C 15.0 25.0 15.0
C 17.5 22.5 15.0
C 17.5 27.5 15.0
C 20.0 25.0 15.0
C 22.5 22.5 15.0
C 27.5 22.5 15.0
C 22.5 27.5 15.0
C 25.0 25.0 15.0
C 27.5 27.5 15.0
C 30.0 25.0 15.0
C 15.0 30.0 15.0
C 20.0 30.0 15.0
C 25.0 30.0 15.0
C 30.0 30.0 15.0
C 15.0 15.0 20.0
C 17.5 15.0 17.5
C 20.0 15.0 20.0
C 22.5 15.0 17.5
C 27.5 15.0 17.5
C 25.0 15.0 20.0
C 30.0 15.0 20.0
C 15.0 17.5 17.5
C 15.0 20.0 20.0
C 20.0 17.5 17.5
C 17.5 20.0 17.5
C 17.5 17.5 20.0
C 20.0 20.0 20.0
C 25.0 17.5 17.5
C 22.5 20.0 17.5
C 27.5 20.0 17.5
C 22.5 17.5 20.0
C 27.5 17.5 20.0
C 25.0 20.0 20.0
C 30.0 17.5 17.5
C 30.0 20.0 20.0
C 15.0 22.5 17.5
C 15.0 27.5 17.5
C 15.0 25.0 20.0
C 20.0 22.5 17.5
C 17.5 25.0 17.5
C 20.0 27.5 17.5
C 17.5 22.5 20.0
C 17.5 27.5 20.0
C 20.0 25.0 20.0
C 25.0 22.5 17.5
C 22.5 25.0 17.5
C 27.5 25.0 17.5
C 25.0 27.5 17.5
C 22.5 22.5 20.0
C 27.5 22.5 20.0
C 22.5 27.5 20.0
C 25.0 25.0 20.0
C 27.5 27.5 20.0
C 30.0 22.5 17.5
C 30.0 27.5 17.5
C 30.0 25.0 20.0
C 15.0 30.0 20.0
C 17.5 30.0 17.5
C 20.0 30.0 20.0
C 22.5 30.0 17.5
C 27.5 30.0 17.5
C 25.0 30.0 20.0
C 30.0 30.0 20.0
C 15.0 15.0 25.0
C 17.5 15.0 22.5
C 17.5 15.0 27.5
C 20.0 15.0 25.0
C 22.5 15.0 22.5
C 27.5 15.0 22.5
C 22.5 15.0 27.5
C 25.0 15.0 25.0
C 27.5 15.0 27.5
C 30.0 15.0 25.0
C 15.0 17.5 22.5
C 15.0 17.5 27.5
C 15.0 20.0 25.0
C 20.0 17.5 22.5
C 17.5 20.0 22.5
C 17.5 17.5 25.0
C 20.0 17.5 27.5
C 17.5 20.0 27.5
C 20.0 20.0 25.0
C 25.0 17.5 22.5
C 22.5 20.0 22.5
C 27.5 20.0 22.5
C 22.5 17.5 25.0
C 27.5 17.5 25.0
C 25.0 17.5 27.5
C 22.5 20.0 27.5
C 25.0 20.0 25.0
C 27.5 20.0 27.5
C 30.0 17.5 22.5
C 30.0 17.5 27.5
C 30.0 20.0 25.0
C 15.0 22.5 22.5
C 15.0 27.5 22.5
C 15.0 22.5 27.5
C 15.0 25.0 25.0
C 15.0 27.5 27.5
C 20.0 22.5 22.5
C 17.5 25.0 22.5
C 20.0 27.5 22.5
C 17.5 22.5 25.0
C 20.0 22.5 27.5
C 17.5 27.5 25.0
C 17.5 25.0 27.5
C 20.0 25.0 25.0
C 20.0 27.5 27.5
C 25.0 22.5 22.5
C 22.5 25.0 22.5
C 27.5 25.0 22.5
C 25.0 27.5 22.5
C 22.5 22.5 25.0
C 27.5 22.5 25.0
C 25.0 22.5 27.5
C 22.5 27.5 25.0
C 22.5 25.0 27.5
C 25.0 25.0 25.0
C 27.5 27.5 25.0
C 27.5 25.0 27.5
C 25.0 27.5 27.5
C 30.0 22.5 22.5
C 30.0 27.5 22.5
C 30.0 22.5 27.5
C 30.0 25.0 25.0
C 30.0 27.5 27.5
C 15.0 30.0 25.0
C 17.5 30.0 22.5
C 17.5 30.0 27.5
C 20.0 30.0 25.0
C 22.5 30.0 22.5
C 27.5 30.0 22.5
C 22.5 30.0 27.5
C 25.0 30.0 25.0
C 27.5 30.0 27.5
C 30.0 30.0 25.0
C 15.0 15.0 30.0
C 20.0 15.0 30.0
C 25.0 15.0 30.0
C 30.0 15.0 30.0
C 15.0 20.0 30.0
C 17.5 17.5 30.0
C 20.0 20.0 30.0
C 22.5 17.5 30.0
C 27.5 17.5 30.0
C 25.0 20.0 30.0
C 30.0 20.0 30.0
C 15.0 25.0 30.0
C 17.5 22.5 30.0
C 17.5 27.5 30.0
C 20.0 25.0 30.0
C 22.5 22.5 30.0
C 27.5 22.5 30.0
C 22.5 27.5 30.0
C 25.0 25.0 30.0
C 27.5 27.5 30.0
C 30.0 25.0 30.0
C 15.0 30.0 30.0
C 20.0 30.0 30.0
C 25.0 30.0 30.0
C 30.0 30.0 30.0
172
TIMESTEP: 100	Temperature (K): 152.17111	Potential Energy: -43.920937
C 15.5547 15.5509 15.6732
C 20.2551 15.7658 15.3866
C 24.6576 15.5844 15.4562
C 29.3642 15.7364 15.3454
C 15.2448 20.1968 15.8437
C 17.7344 18.1287 15.4794
C 20.215 20.3285 15.6103
C 22.4535 18.0689 15.5047
C 27.2285 18.2419 15.5745
C 24.7094 20.2424 15.6616
C 29.7691 20.2284 15.9791
C 15.8173 24.7641 15.562
C 17.9016 22.3863 15.7461
C 17.9821 27.0999 15.6394
C 20.2351 24.4684 15.6745
C 22.5144 22.4651 15.6391
C 27.054 22.505 15.5273
C 22.2894 26.73 15.5665
C 24.743 24.6183 15.6249
C 27.1426 26.924 15.5991
C 29.4943 24.6611 15.7915
C 15.5695 29.3475 16.019
C 20.2542 29.3559 15.7993
C 24.7317 29.3161 15.5702
C 29.3747 29.245 15.7109
C 15.8275 15.7547 20.363
C 17.9916 15.3308 17.9479
C 20.3758 15.6326 20.2634
C 22.5397 15.6398 18.0104
C 27.0527 15.5593 17.8313
C 24.674 15.6109 20.1987
C 29.1168 15.3589 20.4521
C 15.3617 17.8683 18.0517
C 15.5113 20.2046 20.2422
C 20.1116 17.9302 17.8865
C 17.7839 20.1776 17.9911
C 18.0521 17.979 20.2505
C 20.4012 20.3054 20.1716
C 24.7907 17.9093 17.8857
C 22.5085 20.4128 17.9835
C 27.047 20.3488 17.9696
C 22.5215 18.0576 20.2012
C 26.9613 17.9965 20.1976
C 24.7275 20.2543 20.2281
C 29.4855 17.7346 18.1499
C 29.3891 20.2321 20.4021
C 15.61 22.5312 18.0398
C 15.5726 26.8754 17.9458
C 15.6181 24.6302 20.2871
C 20.3333 22.4302 18.0463
C 18.0015 24.7577 18.0606
C 20.2574 26.955 18.0569
C 18.0883 22.4901 20.375
C 18.0405 27.0465 20.2581
C 20.3234 24.673 20.3464
C 24.6612 22.5748 17.9157
C 22.5192 24.6402 18.0145
C 27.1069 24.6875 17.9944
C 24.7088 26.9726 17.8971
C 22.5031 22.4523 20.3035
C 26.9854 22.4836 20.3902
C 22.5542 26.8928 20.265
C 24.6849 24.6567 20.3207
C 26.9141 27.0007 20.2523
C 29.3938 22.4671 18.027
C 29.3815 27.1404 18.1528
C 29.3217 24.6775 20.3652
C 15.7084 29.3306 20.2175
C 17.9944 29.5207 18.0167
C 20.3087 29.3363 20.3728
C 22.5429 29.2354 17.9551
C 26.9745 29.6668 18.0321
C 24.6311 29.3639 20.4282
C 29.2623 29.3291 20.4445
C 15.7863 15.68 24.7349
C 18.0962 15.6022 22.5798
C 18.0697 15.6572 26.9521
C 20.3134 15.6639 24.7356
C 22.5324 15.6848 22.5586
C 26.7889 15.6075 22.539
C 22.5448 15.6888 27.022
C 24.7012 15.6545 24.7444
C 27.0241 15.6031 26.9149
C 29.4478 15.623 24.554
C 15.6251 18.0526 22.518
C 15.4369 17.9629 27.0399
C 15.68 20.2026 24.7004
C 20.3164 18.0869 22.4088
C 18.1787 20.2645 22.4544
C 18.0909 18.0447 24.7101
C 20.3869 18.1243 27.0613
C 18.0496 20.3073 27.0318
C 20.3708 20.3578 24.6442
C 24.7089 18.0494 22.3795
C 22.555 20.293 22.435
C 27.005 20.2555 22.5082
C 22.5328 18.0483 24.7253
C 27.051 18.0485 24.7445
C 24.8054 18.0343 27.0341
C 22.4141 20.3724 27.0983
C 24.6477 20.2774 24.7284
C 27.0955 20.3549 27.116
C 29.4473 18.0506 22.5352
C 29.439 17.9239 26.8709
C 29.283 20.4367 24.6139
C 15.743 22.4687 22.4541
C 15.5828 27.0663 22.4311
C 15.6603 22.486 26.7639
C 15.5178 24.7997 24.5425
C 15.6334 27.1087 26.9839
C 20.3436 22.5095 22.46
C 18.0583 24.7314 22.4753
C 20.2518 26.8689 22.4314
C 18.0559 22.4538 24.6587
C 20.2988 22.5333 27.0522
C 17.948 27.0829 24.6531
C 17.9845 24.7419 27.0217
C 20.2527 24.6055 24.6874
C 20.289 27.1494 26.9932
C 24.6552 22.4821 22.4194
C 22.4673 24.6414 22.5235
C 26.824 24.7039 22.5256
C 24.6885 26.8307 22.5682
C 22.5182 22.5731 24.7021
C 27.0494 22.5794 24.6386
C 24.6256 22.4613 26.9148
C 22.3143 27.0214 24.781
C 22.4953 24.7553 26.9857
C 24.6706 24.6899 24.7109
C 27.0322 27.0289 24.7914
C 26.867 24.785 27.0371
C 24.6099 27.066 26.9824
C 29.35 22.5315 22.5116
C 29.3081 26.9468 22.5241
C 29.3827 22.6007 26.9716
C 29.3114 24.7727 24.7104
C 29.4132 26.9403 27.0925
C 15.8945 29.6419 24.5628
C 18.1032 29.3914 22.3474
C 18.0402 29.5735 27.2689
C 20.2849 29.434 24.5518
C 22.4249 29.2094 22.4831
C 26.9006 29.3537 22.4789
C 22.3084 29.5575 26.9245
C 24.6971 29.4154 24.714
C 27.2256 29.5314 27.006
C 29.4846 29.1733 24.6928
C 15.5975 15.5582 29.0177
C 20.3753 15.6557 29.3568
C 24.6962 15.5383 29.4726
C 29.1659 15.3678 29.2895
C 15.67 20.3505 29.3081
C 18.1398 17.9494 29.5492
C 20.3489 20.3409 29.4732
C 22.5137 18.104 29.4861
C 26.9891 17.9749 29.3547
C 24.7203 20.4303 29.4197
C 29.581 20.302 29.2343
C 15.6408 24.6999 29.3019
C 18.0275 22.5008 29.353
C 18.0353 27.0592 29.5884
C 20.35 24.665 29.3106
C 22.4441 22.5746 29.2811
C 26.965 22.6335 29.4494
C 22.3531 27.0159 29.4909
C 24.6295 24.6703 29.3564
C 26.8054 27.0622 29.4499
C 29.3716 24.6947 29.3052
C 15.6921 29.3229 29.6386
C 20.4084 29.472 29.5545
C 24.7307 29.3436 29.0906
C 29.2334 29.3253 29.7006
172
TIMESTEP: 200	Temperature (K): 143.90932	Potential Energy: -43.427778
C 14.732 15.1783 15.5747
C 19.9218 15.6937 14.8617
C 25.2018 15.3754 15.2836
C 30.3198 15.1358 15.4884
C 15.2986 19.9649 15.5109
C 17.5863 17.8654 15.5833
C 20.0351 20.1728 15.3178
C 22.6705 17.6605 15.2761
C 27.1681 18.0614 15.3914
C 24.8034 20.5001 15.141
C 29.7774 19.8594 15.4984
C 15.0427 25.0886 15.2324
C 17.6167 22.5674 15.1424
C 17.4241 27.4675 15.1555
C 19.8188 25.037 15.1573
C 22.38 22.6814 15.1008
C 27.5376 22.4661 15.5513
C 22.6644 27.1808 15.1045
C 25.0487 24.6864 15.197
C 27.2541 27.1568 15.056
C 29.7137 25.171 14.9832
C 14.8625 29.9484 15.5179
C 20.045 29.5082 14.957
C 25.4545 29.9282 14.5893
C 29.62 30.1143 14.7819
C 15.4365 14.7146 19.6702
C 17.9224 15.3616 17.6561
C 20.2667 15.224 20.102
C 22.4881 15.2954 17.3874
C 27.3516 15.4759 17.7559
C 24.7866 15.212 19.9207
C 29.6667 15.1446 19.9246
C 15.5241 17.7107 18.046
C 15.1778 20.2916 20.4101
C 20.1586 17.7544 17.547
C 17.5104 20.3527 17.9937
C 17.8962 17.5881 20.2636
C 20.0668 20.2204 20.0902
C 24.9274 17.7691 17.7179
C 22.5117 20.2528 17.5838
C 27.3631 20.1186 17.7951
C 22.5169 17.7571 20.2554
C 27.2659 17.6772 20.1745
C 24.8733 20.042 20.1969
C 29.8251 17.8442 18.1033
C 29.8981 20.2418 20.2582
C 15.0498 22.6222 17.8235
C 15.3252 27.2527 17.6136
C 15.231 25.0984 20.3
C 20.0794 22.527 17.5218
C 17.5178 24.8957 17.739
C 20.0583 27.1081 17.5807
C 17.5242 22.6496 20.3295
C 17.7551 27.3261 20.1181
C 20.0851 24.8454 19.9932
C 24.9565 22.4501 17.8286
C 22.5303 24.7967 17.5908
C 27.3814 24.9781 17.7547
C 24.8934 27.0701 17.4622
C 22.5763 22.4417 20.1034
C 27.4242 22.4957 20.2497
C 22.515 27.3617 20.0588
C 24.8403 24.7878 20.0073
C 27.4285 27.2332 20.1658
C 29.867 22.6427 17.6981
C 29.6968 27.1522 17.7443
C 29.8048 24.7763 20.3919
C 15.155 29.708 19.6018
C 17.9039 29.5497 17.7089
C 20.2449 29.8241 20.0401
C 22.6917 29.8778 17.4748
C 26.9861 29.3812 17.5944
C 24.8442 29.9414 20.146
C 29.5948 29.9029 19.5932
C 15.2005 15.0234 25.0114
C 17.6403 14.9141 22.4353
C 17.7685 15.1748 27.2074
C 20.3577 15.0903 24.8184
C 22.5591 15.0469 22.493
C 27.0403 14.7694 22.3274
C 22.4454 15.4003 27.693
C 24.7675 15.1601 25.13
C 27.2846 15.0621 27.3245
C 29.6185 15.0828 25.0351
C 15.2457 17.3649 22.2355
C 15.34 17.5663 27.2368
C 15.2854 19.7995 24.7459
C 20.2093 17.4616 22.583
C 17.7161 19.9375 22.4525
C 17.8223 17.5554 24.8315
C 19.9434 17.6444 27.2047
C 17.5524 20.0225 27.2492
C 20.0867 20.0864 25.0534
C 24.8434 17.5728 22.6372
C 22.4836 20.0259 22.4551
C 27.3338 20.0363 22.3905
C 22.4017 17.5907 24.9799
C 27.2241 17.5667 24.8758
C 24.8281 17.7997 27.1655
C 22.3919 19.9641 27.3102
C 24.9058 19.9926 24.7761
C 27.4572 19.9883 27.1216
C 29.8032 17.5342 22.6586
C 29.6752 17.5165 27.1309
C 29.8206 19.9399 24.9267
C 15.0907 22.6186 22.6724
C 15.3575 27.4779 22.6011
C 15.1245 22.5537 27.4079
C 15.5233 25.0582 25.1046
C 15.2127 27.3889 27.5305
C 20.2678 22.6014 22.4955
C 17.8196 25.0111 22.507
C 20.1264 27.433 22.3852
C 17.7076 22.4384 24.7224
C 20.2074 22.6871 27.4638
C 17.9067 27.5218 24.8676
C 17.7792 24.9832 27.2495
C 20.1943 24.8993 24.9599
C 20.2566 27.2462 27.414
C 25.027 22.5557 22.5617
C 22.6376 24.939 22.4172
C 27.3094 24.8619 22.4944
C 25.0432 27.1975 22.409
C 22.503 22.4595 24.9433
C 27.3532 22.5523 24.8548
C 24.9781 22.3293 27.1935
C 22.4819 27.3295 24.9029
C 22.7173 24.7987 27.4774
C 24.9665 24.8584 24.7938
C 27.3506 27.4683 24.8264
C 27.2477 24.9222 27.3017
C 24.9299 27.2294 27.0472
C 29.8797 22.3954 22.626
C 29.9395 27.6617 22.562
C 29.8909 22.5317 27.3378
C 29.8132 24.9961 24.6992
C 29.7116 27.167 27.2853
C 15.2737 29.7487 25.3651
C 17.4816 29.9232 22.3174
C 17.7602 29.5044 27.4357
C 19.8965 29.9706 24.6968
C 22.4655 30.3209 22.5076
C 27.5924 29.9631 22.3642
C 22.6179 29.6664 27.3087
C 25.136 29.7868 24.6866
C 27.1253 29.6289 27.322
C 29.6127 30.0463 25.3606
C 15.0283 14.9082 29.9053
C 19.7357 15.3477 29.9211
C 25.1089 15.5179 29.886
C 29.7511 14.7746 29.7708
C 15.1794 19.8705 29.8939
C 17.6378 17.7307 29.5365
C 19.7911 20.3459 29.5656
C 22.2932 17.6799 29.9097
C 27.3556 17.9135 29.7731
C 24.9153 19.9664 29.5616
C 29.8786 19.7511 29.4704
C 15.06 25.0217 29.8374
C 17.3745 22.7113 29.6815
C 17.7994 27.0846 29.8271
C 20.3916 24.7498 29.9006
C 22.4299 22.2198 29.8844
C 27.3718 22.2471 29.6007
C 22.6419 27.3042 29.7856
C 24.7924 24.6509 29.9935
C 26.9322 27.4808 29.8649
C 29.4109 25.1326 29.7253
C 14.902 30.2328 29.6291
C 19.9315 29.3801 29.8037
C 24.843 30.0463 29.9147
C 29.6826 30.295 29.8411
172
TIMESTEP: 300	Temperature (K): 133.54691	Potential Energy: -43.007516
C 13.9701 15.04 15.9719
C 20.285 15.7879 15.2266
C 24.6538 15.3728 15.5698
C 31.4154 14.5354 15.647
C 14.8779 20.4342 15.8639
C 17.2848 17.887 15.1671
C 20.2752 20.2479 15.3961
C 22.6155 18.0861 15.5456
C 27.5704 17.8382 15.2556
C 24.912 20.3259 15.5312
C 29.9197 20.4107 15.5821
C 15.2717 24.6127 15.4965
C 17.8698 22.4735 15.6814
C 17.5547 27.1476 15.1199
C 20.0155 24.8008 15.3463
C 22.4885 22.491 15.6556
C 27.3529 22.4212 15.4049
C 22.4894 26.7777 15.1318
C 25.0642 24.6616 15.271
C 27.2347 27.2895 15.1168
C 29.6162 24.6518 15.3051
C 14.6653 30.1694 15.4099
C 20.2728 29.1855 15.0865
C 25.8263 30.2208 14.2116
C 28.8917 30.0863 14.0934
C 15.6848 15.2037 20.1646
C 17.8469 15.3534 17.4157
C 20.3215 15.433 19.9013
C 22.504 15.6803 17.7669
C 27.4644 15.244 17.5691
C 24.8772 15.2893 20.0075
C 29.6426 15.3274 20.1868
C 15.1671 17.5866 17.5742
C 15.4042 20.0693 20.1022
C 19.9542 17.859 17.6106
C 17.6795 20.0877 17.7647
C 17.8307 17.411 20.0083
C 20.2157 20.1113 20.2642
C 25.0396 17.6289 17.7286
C 22.5669 20.2977 17.9439
C 27.4933 20.1047 17.774
C 22.6953 17.868 20.1371
C 27.3877 17.5832 19.8593
C 24.9894 20.1451 20.0928
C 29.9361 17.6034 17.3805
C 29.5273 20.1051 20.2442
C 15.3279 22.5582 18.1946
C 15.1616 27.3516 17.6243
C 15.3897 25.0378 20.2505
C 20.2269 22.7369 17.9689
C 17.5816 25.0605 17.7255
C 20.0878 27.2038 17.7305
C 18.0368 22.5024 20.0776
C 17.7587 27.4905 19.9923
C 19.931 25.0155 20.2098
C 24.8458 22.6272 17.8775
C 22.6445 24.9713 17.831
C 27.3583 24.7111 17.6657
C 25.0515 27.2991 17.5538
C 22.429 22.7132 20.2664
C 27.1299 22.5227 20.0765
C 22.4811 27.0539 20.1089
C 24.9664 24.98 20.0461
C 27.4451 27.5143 19.7138
C 29.5968 22.451 18.0736
C 29.7243 27.5962 17.0605
C 29.7286 24.801 20.0761
C 15.6477 30.0263 20.2536
C 17.4967 29.7041 17.1806
C 20.1203 29.665 20.164
C 22.5196 29.1893 17.7578
C 27.877 30.2761 17.2924
C 24.9814 29.878 19.9733
C 29.8152 29.6977 20.1356
C 15.4491 15.0694 24.6191
C 18.1006 15.2882 22.5461
C 17.1974 14.9891 27.6576
C 20.0653 14.9696 24.9743
C 22.4191 15.5801 22.2632
C 26.9206 15.232 22.5353
C 22.5156 15.3608 27.1819
C 24.8264 15.3031 24.9067
C 27.2261 14.7992 27.5026
C 29.2399 14.7055 24.8481
C 15.6319 17.5874 22.3559
C 14.9232 17.4761 27.3648
C 15.2806 20.165 24.5647
C 20.0852 17.8491 22.4832
C 17.8596 20.024 22.5328
C 17.5323 17.7218 24.8611
C 19.7206 17.471 27.4159
C 17.5137 19.9026 27.1074
C 20.0181 19.9234 25.0328
C 24.7802 17.8181 22.588
C 22.5627 20.1041 22.4746
C 27.1618 20.1307 22.561
C 22.4888 17.6217 24.9696
C 27.2688 17.4516 25.2071
C 24.9911 17.4985 27.5032
C 22.4133 20.0871 27.2904
C 24.9773 19.8427 25.0749
C 27.4677 19.8797 27.4911
C 29.5661 17.7936 22.5996
C 30.1102 17.1406 27.3284
C 29.602 20.0361 25.0723
C 15.4798 22.417 22.2863
C 15.4776 27.4388 22.3907
C 15.3322 22.488 27.2365
C 15.2154 25.0489 24.6206
C 15.2469 27.3535 27.4542
C 20.1945 22.648 22.6618
C 17.6174 25.022 22.5688
C 20.1095 27.18 22.7252
C 17.7738 22.5883 24.8255
C 20.0982 22.4058 26.9838
C 17.5849 27.3209 25.1749
C 17.559 24.8768 27.2473
C 19.8733 24.9921 24.9781
C 19.9302 27.3389 27.5236
C 24.7525 22.4842 22.5315
C 22.5318 24.9153 22.5726
C 27.2289 25.0813 22.5354
C 24.8682 27.203 22.4837
C 22.4706 22.5231 24.8055
C 27.107 22.4697 24.7817
C 24.8016 22.5229 27.0223
C 22.6542 27.3329 25.0148
C 22.3625 25.0242 27.09
C 24.9378 24.948 24.8498
C 27.2566 27.5277 25.0266
C 27.3999 24.9443 27.0111
C 25.0698 27.441 27.3008
C 29.3979 22.6229 22.5739
C 29.5888 27.1101 22.4301
C 29.6022 22.6067 26.9952
C 29.6912 25.0162 24.7198
C 29.4025 27.6172 27.7361
C 15.7378 29.8809 24.8933
C 18.0193 29.4801 22.6944
C 17.8702 29.7035 27.9534
C 20.1277 29.7751 24.9174
C 22.556 29.5482 22.5742
C 27.2354 29.5025 22.424
C 22.3959 29.655 27.443
C 24.8068 29.8586 25.1129
C 27.2438 30.2403 27.7406
C 29.4305 29.974 25.0145
C 14.878 14.6625 30.0705
C 20.3468 15.036 29.5109
C 24.3359 15.0749 29.9795
C 30.0942 14.4651 29.7607
C 15.2965 20.1853 29.4293
C 17.4121 17.3601 29.8482
C 20.0245 20.0521 29.4612
C 22.5257 17.7636 29.4239
C 27.5698 17.5308 30.0192
C 24.7869 20.2941 29.6386
C 30.4144 20.0255 28.8929
C 15.5526 24.6781 29.7153
C 17.7277 22.4594 29.3512
C 17.7318 27.329 30.1307
C 19.9747 24.6974 29.509
C 22.4676 22.7447 29.3953
C 27.1221 22.4847 29.326
C 22.5332 26.8689 29.6302
C 24.9332 24.8354 29.317
C 27.0699 27.3336 29.8463
C 29.5133 24.8232 29.6742
C 14.6248 30.8127 29.1707
C 20.5363 29.2051 30.0904
C 24.7716 29.5774 29.7632
C 29.8177 31.1682 29.7402
172
TIMESTEP: 400	Temperature (K): 168.96331	Potential Energy: -43.48081
C 14.8858 15.3236 17.1518
C 20.0743 15.6877 15.5146
C 24.811 15.8064 15.3183
C 30.8343 15.4883 17.2282
C 15.4676 20.2531 15.5857
C 17.7913 18.0732 15.8279
C 20.1274 20.3639 15.4167
C 22.4483 18.0492 15.2384
C 27.0582 18.0382 15.7203
C 24.9682 20.3096 15.4631
C 29.6156 20.117 15.5405
C 15.2498 25.0342 15.8791
C 17.8906 22.7294 15.5369
C 17.9983 26.9042 15.5853
C 20.457 24.6887 15.5627
C 22.7751 22.5708 14.9602
C 27.3691 22.5901 15.444
C 22.4269 26.9934 15.3931
C 24.7448 24.7499 15.5464
C 26.9313 26.86 15.707
C 29.5528 25.059 15.7048
C 15.899 29.1806 15.9812
C 20.049 29.1996 15.1356
C 24.7088 29.2299 15.5577
C 29.4257 29.0763 15.0772
C 15.4077 15.4984 20.145
C 17.8184 15.549 17.9327
C 20.3653 15.3423 20.2342
C 22.6204 15.1184 17.6091
C 27.0294 15.6333 18.0716
C 24.5834 15.4346 20.098
C 29.6106 15.4897 20.1683
C 15.5216 18.322 18.4044
C 15.2124 20.3448 20.6777
C 20.2666 17.9795 17.78
C 17.7423 20.4489 18.0885
C 17.9192 17.8149 20.3102
C 20.1435 20.137 20.1775
C 24.594 18.0427 17.6504
C 22.4884 20.3836 17.6519
C 27.2637 20.3452 17.8494
C 22.486 18.0304 20.1007
C 27.2988 17.8963 20.3659
C 24.9581 20.1866 19.9967
C 29.4396 17.8961 18.0833
C 29.8494 20.0994 20.6104
C 15.0888 22.4602 18.1016
C 15.5657 26.8732 18.4836
C 15.4686 24.6733 20.6041
C 20.2062 22.5353 17.9394
C 17.6856 24.6794 18.0144
C 20.3401 27.1148 17.7278
C 17.8537 22.6062 20.3832
C 18.203 27.3032 20.347
C 20.0522 24.7917 20.1164
C 24.8825 22.4107 17.8143
C 22.58 24.6477 17.9867
C 27.3285 24.6404 17.959
C 24.7481 26.8938 17.8956
C 22.5728 22.4124 20.1859
C 27.2964 22.5078 20.2177
C 22.6861 26.9825 20.0956
C 25.0208 24.7159 20.1173
C 27.0043 27.3782 20.3856
C 29.8223 22.4884 18.169
C 29.1278 27.2692 18.1091
C 29.5064 24.8241 20.4897
C 15.7422 29.5519 20.1693
C 18.1178 29.38 17.9268
C 20.5556 29.6758 20.1457
C 22.2745 29.7576 17.6906
C 26.8367 29.3337 17.9349
C 24.6506 29.93 19.9448
C 29.1142 29.8742 20.0187
C 15.3495 15.1865 25.0408
C 17.6506 15.1997 22.5277
C 18.192 15.6382 26.8716
C 20.2745 15.3493 24.4047
C 22.5245 15.2845 22.2612
C 27.1903 15.2735 22.2732
C 22.5652 15.3178 26.8904
C 24.6445 15.1865 24.4127
C 26.6237 15.2467 26.8853
C 29.0328 15.0769 24.7697
C 15.2756 17.6391 22.3649
C 15.604 18.021 26.7811
C 15.2424 20.2348 24.8981
C 20.0973 17.8546 22.3489
C 17.8914 20.268 22.4372
C 17.7882 17.9282 24.6253
C 20.5408 17.8712 26.8732
C 17.7838 20.4196 27.1272
C 20.3315 20.0691 24.8038
C 24.7776 18.0247 22.223
C 22.6158 20.2954 22.4547
C 27.2823 20.2614 22.4499
C 22.5829 17.6446 24.5056
C 26.8873 17.7858 24.4694
C 24.6788 17.8261 27.1151
C 22.6886 20.2726 27.3157
C 24.7454 20.2587 24.7507
C 27.0088 20.2418 26.9608
C 29.7107 17.6069 22.8408
C 29.1795 17.6617 26.6212
C 29.7624 20.3078 24.6119
C 15.2094 22.6713 22.8768
C 15.6256 27.4673 22.3367
C 15.4165 22.4307 27.0641
C 15.5821 25.0266 24.7193
C 15.684 27.0057 26.9616
C 20.2156 22.4694 22.4626
C 18.0033 24.9592 22.5163
C 20.4848 27.0332 22.3965
C 17.9103 22.48 24.7978
C 20.2007 22.455 27.0946
C 18.2538 27.2039 24.6928
C 17.9183 24.5558 27.2228
C 20.2502 24.7724 24.8469
C 20.3747 26.9949 27.1752
C 24.8618 22.3793 22.3679
C 22.6041 24.6749 22.4695
C 27.1171 24.8828 22.6896
C 24.7033 27.2453 22.4395
C 22.503 22.5424 24.8584
C 27.0836 22.4268 24.7617
C 24.7544 22.5167 27.2823
C 22.6212 26.8844 24.9068
C 22.4461 24.5959 27.1868
C 24.7958 24.7864 24.8454
C 26.8633 27.1195 24.75
C 26.9967 24.6752 27.2243
C 24.4494 26.8337 27.4515
C 29.6033 22.6518 22.5781
C 29.3434 27.367 22.5888
C 29.701 22.5456 27.081
C 29.4304 24.8233 24.8581
C 29.422 27.2984 27.0015
C 15.8308 29.7567 24.6489
C 17.9768 30.036 22.3888
C 18.3837 29.4203 26.9422
C 20.5131 29.3621 24.6202
C 22.8194 29.6885 22.2854
C 26.8155 30.0753 22.4758
C 22.4007 29.5787 27.3365
C 24.374 29.3493 24.9434
C 26.4679 29.2456 27.2964
C 29.0211 29.9427 24.9356
C 15.9282 15.8469 29.3145
C 20.0694 15.404 29.5135
C 24.9218 15.5864 29.5566
C 29.116 15.5035 28.8488
C 15.3177 19.8066 29.2714
C 18.2104 18.0532 29.1389
C 20.0879 20.4466 29.4895
C 22.4596 17.7622 29.715
C 26.9956 17.8508 29.0834
C 25.0015 20.3764 29.5701
C 29.5006 19.9019 29.0342
C 15.4147 25.0337 29.4035
C 17.4637 22.4589 29.6463
C 18.1002 27.0175 29.3563
C 20.128 24.3456 29.6792
C 22.6446 22.24 29.6933
C 27.5395 22.257 29.6294
C 22.1475 26.9918 29.8364
C 24.8164 24.5918 30.1002
C 26.996 26.9102 29.4202
C 29.687 24.96 29.2944
C 15.3785 29.9237 27.9003
C 20.215 29.6906 29.8561
C 24.7126 29.1025 29.9319
C 29.0829 30.3746 28.366
172
TIMESTEP: 500	Temperature (K): 135.32525	Potential Energy: -42.397106
C 14.0972 15.2409 15.4574
C 19.5577 15.7683 14.9963
C 24.9763 15.338 15.5997
C 31.26 14.7423 17.0788
C 14.7888 19.8688 15.0491
C 16.8005 17.4363 15.3556
C 19.5116 20.0058 15.3557
C 22.3458 17.8493 15.48
C 28.2081 17.9364 15.0976
C 24.8068 20.2275 14.9784
C 29.9305 20.6284 15.3291
C 15.0252 25.5869 15.6817
C 17.4932 23.0533 14.8775
C 18.041 27.3552 15.1154
C 20.1755 24.7151 14.9035
C 22.2714 22.1424 15.4941
C 27.4798 22.8195 15.5161
C 22.2867 27.0124 14.9035
C 24.7485 24.995 15.2443
C 27.729 26.8297 15.081
C 30.2367 24.7538 15.7222
C 15.0524 28.9223 15.0346
C 20.4048 29.5746 14.6278
C 24.9636 29.0934 14.6721
C 30.6663 30.11 15.3948
C 14.9878 15.3554 19.8787
C 17.4 14.847 17.7963
C 19.8672 15.5522 19.7358
C 22.127 15.4821 17.3943
C 27.8103 15.4918 17.4899
C 25.1599 15.2791 19.4986
C 29.7674 15.1887 20.2575
C 14.4774 17.7771 17.6936
C 15.2309 19.954 20.2163
C 19.3579 17.6369 17.4688
C 17.3011 20.1344 17.6188
C 17.2608 17.4011 19.9753
C 19.898 20.0806 19.8283
C 25.086 17.9076 17.2844
C 22.5223 20.039 17.8002
C 27.7224 20.277 17.6661
C 22.6044 17.6113 20.1558
C 27.5473 17.8534 19.5992
C 25.0385 20.0279 19.9765
C 30.5947 18.1261 17.5633
C 29.7206 19.961 20.276
C 15.2545 22.4631 17.5521
C 15.1294 27.8281 18.0465
C 15.175 25.067 19.8853
C 19.9069 22.4749 17.5215
C 17.6423 25.0037 17.6768
C 20.0268 27.1174 17.4797
C 17.6832 22.502 20.0088
C 17.5749 27.5054 20.2648
C 20.1416 24.9409 19.94
C 24.9013 22.3584 17.5439
C 22.4383 24.6867 17.5633
C 27.3872 25.1474 17.833
C 25.2124 27.422 17.3823
C 22.504 22.494 20.1368
C 27.1161 22.6081 20.1669
C 22.4758 27.3706 19.7892
C 25.0234 24.9081 19.9836
C 27.1674 27.5931 20.0756
C 29.5255 22.7179 18.1491
C 30.0535 27.4428 18.2431
C 29.7374 24.9155 20.636
C 15.6837 30.4246 19.9795
C 17.765 29.8496 16.9129
C 19.868 29.6559 19.5273
C 22.5086 29.4643 17.2437
C 27.7377 29.6698 17.4728
C 24.7678 30.062 19.4716
C 29.1914 30.1473 20.4531
C 15.7353 14.9347 24.5616
C 17.9944 15.0039 22.4388
C 17.9367 15.1605 27.4872
C 20.2914 15.1961 25.0401
C 22.5329 15.0157 22.0556
C 27.0489 15.278 22.4449
C 22.5529 15.3738 27.3418
C 24.8128 15.2762 24.8319
C 27.1793 15.0286 27.5005
C 29.7935 15.0026 25.1538
C 15.2236 17.5828 22.6211
C 15.3802 17.2914 27.7082
C 15.4229 19.921 25.2488
C 19.9984 17.6826 22.4312
C 17.5556 20.1048 22.6275
C 17.6882 17.4522 25.1069
C 20.267 17.7087 27.2966
C 17.9319 19.9442 27.4894
C 19.9914 19.9874 24.9231
C 24.918 17.7346 22.553
C 22.409 19.9823 22.6046
C 27.1417 20.1056 22.3886
C 22.4878 17.8003 24.7309
C 27.1262 17.4283 25.0764
C 24.8947 17.7948 27.3207
C 22.4419 20.1512 27.2324
C 24.7791 20.0686 24.9318
C 27.4106 19.8891 27.2104
C 29.2756 17.4499 22.5997
C 29.7105 17.4576 27.2044
C 29.3849 19.888 24.9331
C 15.37 22.3925 22.3514
C 15.0826 27.4594 22.6295
C 15.4002 22.6127 27.1667
C 15.4182 25.227 25.1121
C 15.6537 27.6708 27.5237
C 20.0761 22.2486 22.3827
C 17.7091 24.9597 22.618
C 20.46 27.2376 22.3525
C 17.7788 22.4937 25.0794
C 20.2496 22.4747 27.3482
C 18.0333 27.3905 25.1241
C 17.7397 25.0237 27.3138
C 20.1424 24.8814 24.9126
C 20.1457 27.175 27.477
C 24.8379 22.5038 22.4944
C 22.2606 24.6643 22.4565
C 27.0659 25.0294 22.6385
C 24.5558 26.9106 22.3351
C 22.3222 22.5118 24.9557
C 27.2467 22.525 24.8743
C 24.9175 22.4865 27.2277
C 22.4812 27.248 25.1434
C 22.5837 24.6725 27.4293
C 24.7826 24.9186 25.1589
C 26.7152 27.4912 24.7784
C 27.4076 24.8591 27.5049
C 25.0141 27.222 27.5917
C 29.817 22.2517 22.8401
C 29.0587 27.6386 22.8274
C 29.9235 22.3484 27.3256
C 29.5024 25.104 24.8095
C 29.9898 27.4044 27.2723
C 15.0829 29.6816 25.0746
C 17.8895 29.569 22.7433
C 17.9992 29.9832 27.5326
C 20.6499 29.8532 25.3851
C 22.8978 29.585 22.573
C 26.3984 29.7588 22.3069
C 22.6025 29.1936 28.0104
C 24.741 29.9476 25.5187
C 26.9097 30.0916 28.0466
C 28.4818 30.2813 25.1177
C 15.976 14.6325 30.4731
C 20.3517 15.5368 29.6576
C 24.4717 15.5027 29.8691
C 30.0817 15.1121 29.3164
C 15.1046 20.0881 29.2445
C 17.7597 17.6583 29.9981
C 20.0415 20.0905 29.8238
C 22.4048 17.8703 29.5471
C 27.456 17.5295 29.5803
C 25.1116 20.0649 29.5989
C 29.877 19.968 29.5997
C 15.6227 24.9756 29.6558
C 17.6721 22.5262 29.3901
C 17.581 27.6585 29.9282
C 19.9808 24.8879 29.7033
C 22.6002 22.3535 29.7233
C 27.3842 22.2698 29.4466
C 22.46 26.7384 29.8746
C 25.2154 25.002 29.8363
C 27.8062 27.4864 29.8208
C 29.9934 24.7063 29.4914
C 15.1853 31.1488 28.6744
C 20.1724 29.2566 29.9599
C 24.8474 28.8717 30.5506
C 30.193 30.5573 28.617
172
TIMESTEP: 600	Temperature (K): 184.35097	Potential Energy: -43.141137
C 14.4384 16.1879 14.8144
C 20.0069 15.7348 15.0678
C 24.8332 15.4306 15.294
C 31.126 14.9659 17.3357
C 14.7682 20.4826 15.9417
C 17.3418 18.2419 15.0064
C 20.0499 20.3422 15.1742
C 22.7649 17.8494 14.9461
C 27.1212 18.1165 14.9973
C 24.9296 20.4233 15.5292
C 30.8526 21.0723 15.7473
C 14.8574 25.213 15.576
C 17.3572 22.4869 15.7399
C 17.7563 26.7593 14.5888
C 19.9164 24.5052 15.1708
C 22.4642 22.3795 15.3849
C 27.549 22.2605 15.472
C 22.6097 26.8122 15.3355
C 25.0223 24.4583 15.2513
C 27.3598 26.5084 15.6732
C 30.1521 24.6008 15.9711
C 14.9963 28.397 14.7123
C 20.3625 29.2887 14.6922
C 25.088 29.0315 14.7603
C 30.5621 30.6452 15.9264
C 14.951 15.2598 20.3552
C 17.7076 15.7296 17.658
C 20.2733 15.5239 19.9247
C 22.2183 15.6566 17.2424
C 27.5041 15.843 17.5626
C 24.4304 15.2962 20.2439
C 29.5113 15.749 20.1743
C 15.2412 17.827 18.1384
C 15.1406 20.2699 20.2063
C 20.0018 17.8774 17.5745
C 17.6469 19.8098 17.8851
C 17.7719 17.5293 20.3081
C 20.0959 20.0711 19.9343
C 24.7203 17.8198 17.6607
C 22.4412 20.2249 17.6529
C 27.2155 20.0323 17.8215
C 22.3779 17.9428 19.7543
C 27.0918 17.8497 20.1744
C 24.8119 20.1717 19.9484
C 29.7811 18.3764 17.6334
C 29.4447 20.1324 20.4514
C 15.1194 22.8826 18.0117
C 15.2954 27.3118 18.3174
C 15.5551 24.9723 20.3963
C 19.971 22.2583 17.6517
C 17.6386 24.9183 17.7729
C 19.8992 27.2827 17.3782
C 17.7969 22.4789 20.0065
C 18.154 27.2248 19.8352
C 20.0352 24.7868 19.8747
C 24.607 22.466 17.9163
C 22.4264 24.7234 17.6386
C 27.0253 24.5181 18.0608
C 24.8196 26.9834 17.9132
C 22.3222 22.4012 20.2038
C 27.0072 22.3488 20.3085
C 22.2255 27.1044 20.0616
C 24.6006 24.6923 20.116
C 27.1442 27.224 20.0702
C 30.047 22.7141 18.5318
C 29.4865 27.1015 18.0763
C 29.7628 25.2843 20.6457
C 17.0124 30.1974 19.9718
C 17.5092 29.3374 16.6245
C 20.589 29.8093 19.7715
C 22.8407 29.5157 17.2528
C 27.0828 29.3636 17.604
C 24.564 29.5943 19.9477
C 28.9004 29.7778 20.0099
C 16.2008 15.1632 24.8444
C 18.1334 15.0515 22.3067
C 18.2553 15.0317 27.5887
C 20.2364 15.2602 24.9658
C 22.296 15.5122 22.419
C 26.8321 15.3035 22.1739
C 22.244 15.3677 27.5081
C 24.831 15.2554 25.1507
C 27.103 15.5131 27.4084
C 29.0882 15.381 24.6864
C 15.4791 17.67 22.2867
C 15.9225 17.4619 27.1598
C 15.275 20.2165 24.7951
C 20.1595 17.8997 22.3864
C 17.5703 20.4043 22.3604
C 17.8967 17.8526 24.6072
C 20.057 17.6822 27.2028
C 17.8353 20.0147 27.0567
C 20.0564 20.161 24.845
C 24.5951 17.9043 22.4576
C 22.4296 20.1907 22.4941
C 27.1966 20.0993 22.6022
C 22.2984 17.7783 25.08
C 26.905 17.7458 24.7819
C 24.6919 17.8453 27.3778
C 22.3182 20.063 27.3102
C 24.5231 20.1372 24.8055
C 27.4148 20.2077 27.0747
C 29.8905 17.8015 22.5504
C 29.4992 17.6465 27.0874
C 29.7838 19.989 24.8834
C 15.5413 22.6539 22.3903
C 16.1174 27.6275 22.2422
C 15.4149 22.6005 27.0946
C 15.4069 25.022 24.8204
C 15.5518 26.9792 27.5068
C 20.1314 22.5002 22.5714
C 18.0109 24.8954 22.495
C 20.4541 27.3621 22.6892
C 17.8569 22.4503 24.9207
C 20.1322 22.5209 27.1319
C 17.878 27.2425 25.0004
C 17.9379 24.8769 27.3266
C 20.2102 24.968 24.938
C 20.4067 27.122 27.4665
C 24.5541 22.4866 22.6363
C 22.4282 24.8119 22.4865
C 27.049 24.778 22.2865
C 24.4935 27.3247 22.3683
C 22.3213 22.5478 24.7617
C 26.9083 22.4489 24.6773
C 24.7831 22.3448 27.1163
C 22.7343 27.3206 25.134
C 22.4858 24.8074 27.2256
C 24.5136 24.8352 24.8421
C 26.6899 27.1307 24.5415
C 27.0866 24.7135 26.8686
C 24.7653 27.2059 27.543
C 29.4067 22.3634 22.5782
C 29.2236 27.955 22.7197
C 29.4471 22.516 26.956
C 29.5939 25.0885 24.0859
C 29.2381 27.116 26.4758
C 15.9314 29.6926 25.2684
C 18.1294 29.9918 22.7841
C 17.9127 29.2421 27.6167
C 20.4344 29.4645 25.3699
C 22.6153 29.8709 22.7818
C 26.7047 29.5899 22.3911
C 22.5404 29.6019 27.7883
C 24.979 29.5671 25.3152
C 26.9041 29.7714 27.9077
C 28.3733 30.3209 25.0214
C 16.8481 15.0866 30.238
C 20.0121 15.1381 30.2532
C 24.8876 15.1462 29.7415
C 30.4447 15.1734 29.4581
C 15.178 19.9354 29.2277
C 17.9151 18.1165 29.8335
C 20.1611 20.2828 29.7345
C 22.1418 17.5421 29.9231
C 27.1559 18.2274 29.7693
C 24.8511 20.478 29.8589
C 29.7284 20.1946 29.4151
C 15.361 24.608 29.838
C 17.4592 22.1152 30.2269
C 18.0558 26.8234 29.8549
C 20.08 24.6334 29.5686
C 22.3809 22.5695 29.4359
C 27.1085 22.5969 29.2555
C 22.5291 26.8204 29.8565
C 24.873 24.7966 29.6665
C 27.4312 26.7995 29.3181
C 30.0945 24.7266 29.0873
C 15.2252 30.7349 28.3645
C 20.5613 29.2593 30.1922
C 24.9969 28.6511 30.6789
C 30.1014 29.7439 28.421
172
TIMESTEP: 700	Temperature (K): 195.31303	Potential Energy: -42.935126
C 14.8653 17.1361 15.26