172
TIMESTEP: 0	Temperature (K): 50.0	Potential Energy: -41.803497
C 15.0 15.0 15.0
C 20.0 15.0 15.0
C 25.0 15.0 15.0
C 30.0 15.0 15.0
C 15.0 20.0 15.0
C 17.5 17.5 15.0
C 20.0 20.0 15.0
C 22.5 17.5 15.0
C 27.5 17.5 15.0
C 25.0 20.0 15.0
C 30.0 20.0 15.0
C 15.0 25.0 15.0
C 17.5 22.5 15.0
C 17.5 27.5 15.0
C 20.0 25.0 15.0
C 22.5 22.5 15.0
C 27.5 22.5 15.0
C 22.5 27.5 15.0
C 25.0 25.0 15.0
C 27.5 27.5 15.0
C 30.0 25.0 15.0
C 15.0 30.0 15.0
C 20.0 30.0 15.0
C 25.0 30.0 15.0
C 30.0 30.0 15.0
C 15.0 15.0 20.0
C 17.5 15.0 17.5
C 20.0 15.0 20.0
C 22.5 15.0 17.5
C 27.5 15.0 17.5
C 25.0 15.0 20.0
C 30.0 15.0 20.0
C 15.0 17.5 17.5
C 15.0 20.0 20.0
C 20.0 17.5 17.5
C 17.5 20.0 17.5
C 17.5 17.5 20.0
C 20.0 20.0 20.0
C 25.0 17.5 17.5
C 22.5 20.0 17.5
C 27.5 20.0 17.5
C 22.5 17.5 20.0
C 27.5 17.5 20.0
C 25.0 20.0 20.0
C 30.0 17.5 17.5
C 30.0 20.0 20.0
C 15.0 22.5 17.5
C 15.0 27.5 17.5
C 15.0 25.0 20.0
C 20.0 22.5 17.5
C 17.5 25.0 17.5
C 20.0 27.5 17.5
C 17.5 22.5 20.0
C 17.5 27.5 20.0
C 20.0 25.0 20.0
C 25.0 22.5 17.5
C 22.5 25.0 17.5
C 27.5 25.0 17.5
C 25.0 27.5 17.5
C 22.5 22.5 20.0
C 27.5 22.5 20.0
C 22.5 27.5 20.0
C 25.0 25.0 20.0
C 27.5 27.5 20.0
C 30.0 22.5 17.5
C 30.0 27.5 17.5
C 30.0 25.0 20.0
C 15.0 30.0 20.0
C 17.5 30.0 17.5
C 20.0 30.0 20.0
C 22.5 30.0 17.5
C 27.5 30.0 17.5
C 25.0 30.0 20.0
C 30.0 30.0 20.0
C 15.0 15.0 25.0
C 17.5 15.0 22.5
C 17.5 15.0 27.5
C 20.0 15.0 25.0
C 22.5 15.0 22.5
C 27.5 15.0 22.5
C 22.5 15.0 27.5
C 25.0 15.0 25.0
C 27.5 15.0 27.5
C 30.0 15.0 25.0
C 15.0 17.5 22.5
C 15.0 17.5 27.5
C 15.0 20.0 25.0
C 20.0 17.5 22.5
C 17.5 20.0 22.5
C 17.5 17.5 25.0
C 20.0 17.5 27.5
C 17.5 20.0 27.5
C 20.0 20.0 25.0
C 25.0 17.5 22.5
C 22.5 20.0 22.5
C 27.5 20.0 22.5
C 22.5 17.5 25.0
C 27.5 17.5 25.0
C 25.0 17.5 27.5
C 22.5 20.0 27.5
C 25.0 20.0 25.0
C 27.5 20.0 27.5
C 30.0 17.5 22.5
C 30.0 17.5 27.5
C 30.0 20.0 25.0
C 15.0 22.5 22.5
C 15.0 27.5 22.5
C 15.0 22.5 27.5
C 15.0 25.0 25.0
C 15.0 27.5 27.5
C 20.0 22.5 22.5
C 17.5 25.0 22.5
C 20.0 27.5 22.5
C 17.5 22.5 25.0
C 20.0 22.5 27.5
C 17.5 27.5 25.0
C 17.5 25.0 27.5
C 20.0 25.0 25.0
C 20.0 27.5 27.5
C 25.0 22.5 22.5
C 22.5 25.0 22.5
C 27.5 25.0 22.5
C 25.0 27.5 22.5
C 22.5 22.5 25.0
C 27.5 22.5 25.0
C 25.0 22.5 27.5
C 22.5 27.5 25.0
C 22.5 25.0 27.5
C 25.0 25.0 25.0
C 27.5 27.5 25.0
C 27.5 25.0 27.5
C 25.0 27.5 27.5
C 30.0 22.5 22.5
C 30.0 27.5 22.5
C 30.0 22.5 27.5
C 30.0 25.0 25.0
C 30.0 27.5 27.5
C 15.0 30.0 25.0
C 17.5 30.0 22.5
C 17.5 30.0 27.5
C 20.0 30.0 25.0
C 22.5 30.0 22.5
C 27.5 30.0 22.5
C 22.5 30.0 27.5
C 25.0 30.0 25.0
C 27.5 30.0 27.5
C 30.0 30.0 25.0
C 15.0 15.0 30.0
C 20.0 15.0 30.0
C 25.0 15.0 30.0
C 30.0 15.0 30.0
C 15.0 20.0 30.0
C 17.5 17.5 30.0
C 20.0 20.0 30.0
C 22.5 17.5 30.0
C 27.5 17.5 30.0
C 25.0 20.0 30.0
C 30.0 20.0 30.0
C 15.0 25.0 30.0
C 17.5 22.5 30.0
C 17.5 27.5 30.0
C 20.0 25.0 30.0
C 22.5 22.5 30.0
C 27.5 22.5 30.0
C 22.5 27.5 30.0
C 25.0 25.0 30.0
C 27.5 27.5 30.0
C 30.0 25.0 30.0
C 15.0 30.0 30.0
C 20.0 30.0 30.0
C 25.0 30.0 30.0
C 30.0 30.0 30.0
172
TIMESTEP: 100	Temperature (K): 170.1554	Potential Energy: -44.363038
C 15.2778 15.5914 15.7699
C 20.2296 15.5802 15.5675
C 24.625 15.5131 15.7061
C 29.5195 16.1408 15.3371
C 15.8235 20.2866 15.5642
C 17.9862 17.9493 15.434
C 20.3965 20.3257 15.6927
C 22.4092 17.9481 15.6395
C 26.7928 17.9771 15.6174
C 24.5842 20.2734 15.6668
C 29.3687 20.1912 15.5443
C 15.7726 24.6752 15.5963
C 18.1255 22.5439 15.7731
C 18.1874 26.9207 15.5222
C 20.3579 24.6713 15.7905
C 22.4907 22.5328 15.8684
C 26.8371 22.4844 15.6814
C 22.5762 27.0015 15.5326
C 24.7623 24.6584 15.5876
C 27.0608 27.1052 15.5499
C 29.4051 24.7379 15.6266
C 15.9035 29.2256 15.4285
C 20.2865 29.3531 15.7946
C 24.7755 29.48 15.5521
C 29.4004 29.3623 15.4508
C 15.3024 15.7567 20.0918
C 17.8016 15.5675 17.9871
C 20.294 15.5274 20.2429
C 22.5698 15.5132 18.0131
C 27.1026 15.5066 17.9415
C 24.6907 15.7171 20.3046
C 29.2555 15.7403 20.5307
C 15.4958 18.1357 17.8544
C 15.5901 20.2908 20.1804
C 20.2733 17.9655 17.9569
C 17.9578 20.1841 18.0116
C 17.9577 17.9286 20.2383
C 20.308 20.2542 20.368
C 24.6466 17.9806 18.0739
C 22.4539 20.2461 18.0945
C 26.9512 20.201 17.9245
C 22.4202 17.9583 20.3473
C 26.9517 18.1333 20.3216
C 24.6435 20.4917 20.4213
C 29.2489 18.1092 18.0965
C 29.411 20.2702 20.3961
C 15.5925 22.6095 18.0082
C 15.6488 26.9606 17.9069
C 15.6782 24.6622 20.3577
C 20.2426 22.3796 18.0818
C 18.0653 24.7502 18.0373
C 20.4682 27.0464 18.0397
C 17.9736 22.5332 20.2812
C 18.0066 27.0424 20.3591
C 20.2788 24.6362 20.2554
C 24.7393 22.629 18.0312
C 22.499 24.7255 18.1217
C 27.0366 24.8199 18.0835
C 24.671 27.1427 17.8642
C 22.4502 22.5595 20.398
C 27.0084 22.4282 20.3441
C 22.5698 26.9791 20.3912
C 24.7328 24.7554 20.2926
C 27.0895 27.1885 20.2461
C 29.2872 22.524 18.0758
C 29.6006 27.2069 18.0
C 29.4799 24.7141 20.4315
C 15.6638 29.2539 20.3905
C 18.0005 29.4255 18.0544
C 20.3468 29.2847 20.3732
C 22.546 29.4713 18.0788
C 27.1677 29.608 17.9418
C 24.8595 29.3894 20.218
C 29.2536 29.6078 20.4069
C 15.5422 15.5199 24.7546
C 17.8876 15.56 22.4234
C 17.9763 15.5819 26.9483
C 20.2048 15.4784 24.7016
C 22.5201 15.6148 22.509
C 26.8786 15.4747 22.5491
C 22.3866 15.5 26.9564
C 24.7305 15.501 24.8411
C 27.03 15.5143 27.0599
C 29.2826 15.7136 24.6875
C 15.5102 17.9076 22.4879
C 15.4244 17.8555 27.1917
C 15.4582 20.1889 24.6998
C 20.2387 17.8768 22.6147
C 18.0562 20.1928 22.5297
C 17.9538 17.8753 24.7178
C 20.2291 17.9309 26.9889
C 17.9139 20.149 27.0177
C 20.2926 20.2335 24.6737
C 24.6244 17.903 22.5373
C 22.4505 20.3723 22.5753
C 26.8744 20.3021 22.5999
C 22.5003 17.91 24.7457
C 26.9464 17.9357 24.6917
C 24.6805 17.934 27.1815
C 22.4017 20.2392 26.9473
C 24.6649 20.1951 24.8704
C 26.9411 20.3049 26.9699
C 29.2622 18.0188 22.5773
C 29.4455 18.0129 27.1068
C 29.2353 20.2388 24.7592
C 15.7183 22.3905 22.4626
C 15.6657 26.9103 22.5351
C 15.6328 22.5343 26.8613
C 15.5927 24.6004 24.6247
C 15.5226 26.982 26.8418
C 20.3216 22.5213 22.5215
C 17.987 24.6444 22.5238
C 20.2835 27.0209 22.3771
C 17.9596 22.4188 24.598
C 20.1957 22.4981 26.8537
C 17.9284 27.0481 24.6433
C 18.0132 24.8435 27.0385
C 20.2368 24.7448 24.6725
C 20.2859 27.0107 26.9896
C 24.724 22.5351 22.5702
C 22.3944 24.7033 22.5319
C 27.0466 24.8667 22.4011
C 24.8059 27.1299 22.5283
C 22.4836 22.5097 24.694
C 26.99 22.6029 24.7065
C 24.8155 22.6059 26.9818
C 22.3825 27.0493 24.6626
C 22.4643 24.7033 26.8311
C 24.677 24.7741 24.6161
C 26.9825 27.0786 24.6445
C 27.1812 24.8265 26.9389
C 24.8181 27.0452 26.9398
C 29.3203 22.5574 22.4724
C 29.4538 27.0674 22.472
C 29.4803 22.4817 26.8965
C 29.4439 24.756 24.5791
C 29.5161 27.0316 26.8424
C 15.6403 29.37 24.5515
C 18.0628 29.4386 22.4636
C 17.9422 29.3253 27.1759
C 20.2824 29.4396 24.7297
C 22.567 29.3341 22.4932
C 26.9108 29.5557 22.5396
C 22.5222 29.4083 26.9465
C 24.5977 29.5386 24.781
C 27.0413 29.4655 27.0095
C 29.3512 29.4489 24.6598
C 15.767 15.5674 29.5727
C 20.1137 15.6012 29.4246
C 24.7096 15.3785 29.2281
C 29.6715 15.8936 29.5148
C 15.671 20.2538 29.2986
C 17.8923 18.0127 29.5468
C 20.3544 20.285 29.4885
C 22.4571 17.9378 29.3304
C 27.1011 18.0244 29.4971
C 24.57 20.329 29.3667
C 29.3497 20.3278 29.2242
C 15.6926 24.604 29.442
C 18.0764 22.3524 29.2494
C 18.1119 26.9238 29.5186
C 20.3017 24.5201 29.27
C 22.5446 22.4498 29.031
C 26.9824 22.5652 29.3189
C 22.5129 26.8749 29.4428
C 24.696 24.8169 29.4422
C 27.345 27.2336 29.5172
C 29.4526 24.7121 29.2849
C 15.4632 29.1819 29.1974
C 20.4294 29.2259 29.3743
C 24.8028 29.2586 29.2981
C 29.9084 29.4747 29.2409
172
TIMESTEP: 200	Temperature (K): 142.23214	Potential Energy: -43.541711
C 15.3064 15.1894 15.3865
C 19.9204 15.3132 15.4987
C 24.8866 15.0654 15.342
C 30.1615 15.6094 14.7591
C 15.1617 19.7512 15.069
C 17.8513 17.8073 15.3956
C 20.2366 20.057 15.2956
C 22.6319 17.5505 15.3218
C 26.8664 17.7714 15.1224
C 24.759 20.2702 15.2843
C 29.5902 19.8473 15.32
C 15.4832 24.9724 15.2215
C 17.6389 22.2861 14.8945
C 17.8793 27.4567 15.3955
C 20.1845 24.8326 15.2962
C 22.3814 22.4084 14.1247
C 27.4501 22.4657 15.3264
C 22.4575 27.485 15.2686
C 24.5518 24.7789 15.4176
C 27.0355 26.9141 15.331
C 29.8764 25.0722 15.259
C 14.9686 29.9439 14.9717
C 19.6802 30.0945 15.4047
C 25.3504 29.6727 15.2066
C 29.81 29.6292 15.4957
C 15.1724 15.4067 20.0402
C 17.7066 15.1387 17.938
C 20.3776 15.0545 20.1169
C 22.6643 15.2219 17.6455
C 27.5736 15.3607 17.5106
C 25.3866 14.8283 19.9352
C 29.7108 14.8729 19.9761
C 15.3032 17.8287 17.7204
C 15.3265 20.3025 19.9898
C 20.1063 17.6314 17.822
C 17.767 20.0612 17.6756
C 17.6088 17.7633 20.0875
C 20.2753 20.0907 20.0555
C 25.0554 17.579 17.8721
C 22.4852 19.9609 17.7635
C 27.3707 19.8569 17.8875
C 22.4919 17.7242 20.0046
C 27.2873 17.4266 20.1709
C 24.9789 20.032 20.235
C 29.8225 17.6262 18.0325
C 29.7845 20.0503 20.2245
C 15.5 22.5819 17.3773
C 15.4343 27.1954 17.6176
C 15.205 24.8929 19.9353
C 20.1253 22.4593 17.4831
C 17.7904 24.8826 17.683
C 20.0781 27.4724 17.9358
C 17.7888 22.3607 20.0033
C 17.6152 27.3261 20.0839
C 19.9347 24.954 20.1593
C 25.117 22.4228 17.8433
C 22.4111 24.9212 17.8156
C 27.0762 24.9433 17.8331
C 24.8394 27.3527 17.743
C 22.492 22.5595 20.1173
C 27.3125 22.4431 20.0918
C 22.4449 27.4195 20.2015
C 24.9 24.8499 20.1594
C 26.9676 27.2099 20.191
C 29.7307 22.6326 17.5915
C 29.4392 27.2792 17.6737
C 29.6148 24.8343 20.1409
C 15.1319 29.792 19.8108
C 17.6706 29.7207 17.7845
C 20.0361 29.9622 20.2475
C 22.3945 29.7493 17.6464
C 27.207 29.8347 17.8689
C 24.8143 29.8629 20.2136
C 29.6635 29.8135 19.986
C 15.1221 15.4512 24.9625
C 17.688 15.1331 22.5415
C 17.7957 15.3647 27.1372
C 20.2426 15.3769 24.8325
C 22.7492 15.042 22.4282
C 27.4576 15.1692 22.4457
C 22.4218 15.2125 27.4684
C 24.9765 15.2066 24.7371
C 27.3375 15.1417 27.2858
C 29.7015 15.2707 24.9464
C 15.0959 17.651 22.4549
C 15.4416 17.718 27.1735
C 15.275 20.1931 24.855
C 20.0356 17.7637 22.3644
C 17.827 20.1562 22.5628
C 17.7294 17.8443 24.8076
C 20.0807 17.8578 27.2032
C 17.553 20.1618 27.2413
C 20.1839 20.2083 24.7829
C 24.9211 17.4863 22.4714
C 22.5752 20.1683 22.4462
C 27.3358 20.0113 22.3865
C 22.4283 17.6326 24.7529
C 27.5099 17.68 24.8165
C 24.7132 17.5204 27.22
C 22.5356 20.0841 27.2908
C 24.9292 19.8501 24.7108
C 27.2957 20.0495 27.1212
C 30.06 17.4192 22.3799
C 29.9025 17.7423 27.0475
C 29.9162 20.0609 24.704
C 14.9712 22.6176 22.5406
C 15.0819 27.2099 22.4987
C 15.1069 22.6379 27.5885
C 15.3225 24.8411 24.9142
C 15.4354 27.444 27.2348
C 20.2595 22.5659 22.4937
C 17.6306 24.859 22.3627
C 20.0386 27.424 22.4909
C 17.6794 22.557 24.8829
C 20.186 22.5737 27.2169
C 17.6157 27.2822 24.9128
C 17.6696 24.8347 27.3731
C 20.1995 24.8319 24.8396
C 20.1974 27.3094 27.2271
C 24.8592 22.4879 22.4557
C 22.4014 25.0175 22.3669
C 27.188 24.8406 22.5208
C 24.8063 27.4064 22.5748
C 22.6339 22.544 24.9606
C 27.3012 22.3383 24.7732
C 24.9234 22.4435 27.3577
C 22.3898 27.2725 24.8031
C 22.5153 24.9125 27.3194
C 24.9174 24.747 24.9052
C 27.1986 27.3189 24.8539
C 27.3376 24.8438 27.0943
C 24.9023 27.2384 27.17
C 29.9925 22.4092 22.3165
C 29.7647 27.3269 22.5195
C 29.7339 22.2852 27.4263
C 29.7963 24.5348 24.7862
C 29.7342 27.1363 27.2282
C 15.4049 29.7769 24.9733
C 17.3858 29.6259 22.4051
C 17.5206 30.0061 27.5298
C 19.961 29.755 24.9995
C 22.3585 30.0096 22.5929
C 27.3986 29.6292 22.5989
C 22.6548 29.5875 27.6566
C 24.7174 29.6606 24.7946
C 27.0866 29.7574 27.2244
C 29.7428 29.5863 25.2014
C 15.6481 15.6176 29.8618
C 19.7442 15.3794 29.7783
C 24.9747 15.1893 29.6917
C 29.7659 15.2257 30.0071
C 15.1079 19.5558 29.7146
C 17.9784 18.1732 29.6479
C 20.2769 20.6293 29.9339
C 22.2585 17.6101 29.7866
C 27.2284 17.9628 29.6375
C 24.6553 20.2076 29.7713
C 29.95 19.6787 29.6316
C 15.0809 25.7487 29.9381
C 17.1328 22.6065 30.0177
C 17.9432 27.2505 29.5948
C 20.1241 24.6191 29.8694
C 22.7917 22.7807 30.6696
C 27.425 22.4324 29.762
C 22.1931 27.4001 30.0274
C 24.9859 25.1095 29.6252
C 27.2415 27.2709 29.6466
C 29.7371 24.9965 29.71
C 15.0524 29.8349 30.0644
C 19.8487 29.8815 29.76
C 25.0714 29.8935 30.1364
C 29.8153 30.0414 29.8009
172
TIMESTEP: 300	Temperature (K): 134.61148	Potential Energy: -43.211635
C 15.2691 14.8661 14.9818
C 20.446 15.1352 15.4219
C 24.8348 15.261 15.4924
C 30.2763 15.3626 14.6819
C 15.5484 19.9107 15.2811
C 17.816 17.2137 15.0455
C 20.0607 19.8509 15.1861
C 22.5719 17.6673 15.4926
C 27.7909 17.4592 15.1899
C 25.0045 19.9951 15.2245
C 30.2049 19.8456 15.0101
C 15.6924 24.8289 14.9916
C 17.9166 22.4378 15.4719
C 17.6099 27.8092 15.1233
C 19.9338 24.9517 15.0759
C 22.2433 22.4921 15.6
C 27.1243 22.4033 15.3798
C 22.5627 27.4874 15.4446
C 24.8167 24.8921 15.2385
C 27.318 27.2789 15.1157
C 29.5141 24.6397 15.43
C 14.5284 30.0547 15.019
C 20.3452 29.9531 15.6705
C 24.9765 29.6669 15.1834
C 29.8084 30.2765 15.0878
C 15.3549 15.5434 20.2351
C 17.7576 15.0511 17.6068
C 20.2299 15.5325 20.1565
C 22.5752 15.279 17.9705
C 27.7473 14.8374 17.2721
C 24.9605 15.4845 20.0387
C 29.489 15.2275 20.0829
C 15.1524 17.4859 17.4819
C 15.3195 20.0233 19.7943
C 20.147 17.5609 17.701
C 17.7593 19.7036 17.5401
C 17.581 17.6922 19.9559
C 20.048 20.037 19.8527
C 25.0038 17.6524 17.5143
C 22.3884 20.1755 17.5781
C 27.5433 20.0224 17.5888
C 22.5263 17.8564 20.0241
C 27.5177 17.6341 19.8216
C 25.0127 19.9883 20.0104
C 30.1385 17.1149 17.3999
C 29.7843 19.9169 20.0622
C 15.545 22.4325 17.6818
C 15.1555 27.531 17.4122
C 15.1858 24.9211 20.0454
C 19.9662 22.5885 17.7675
C 17.779 24.9739 17.5715
C 19.9277 27.3958 17.5408
C 17.9323 22.4549 20.0431
C 17.6168 27.264 20.044
C 19.9436 24.9227 20.0414
C 24.6445 22.5381 17.7057
C 22.3503 24.8816 17.5207
C 27.2654 24.9949 17.6862
C 25.0601 27.3206 17.501
C 22.3886 22.5388 20.2721
C 27.1933 22.6111 19.9519
C 22.4324 27.0136 19.8516
C 24.8313 24.9876 19.9041
C 27.0691 27.1177 20.0003
C 29.5753 22.6046 17.7662
C 29.6268 27.3398 17.436
C 29.6878 25.0695 20.053
C 15.0935 29.2749 20.2837
C 17.5766 29.8558 17.7248
C 20.1636 29.625 20.0993
C 22.5387 29.6251 17.931
C 27.4046 29.7906 17.6156
C 24.7822 29.4781 20.097
C 29.7336 29.5977 20.5489
C 15.6198 15.4415 24.6251
C 17.9179 15.4077 22.4083
C 17.5923 15.5297 27.4249
C 20.1073 15.6468 24.9167
C 22.6032 15.4159 22.4938
C 27.1085 15.2882 22.4776
C 22.3424 15.651 27.2995
C 24.8722 14.954 25.0925
C 27.4125 15.0024 27.1466
C 29.6599 15.3194 24.7083
C 15.3983 17.8781 22.5257
C 15.4227 18.127 27.5329
C 15.4592 20.2505 24.8405
C 20.3134 17.8131 22.4643
C 17.991 20.0169 22.5057
C 17.6487 17.862 25.0625
C 19.9208 17.8918 27.3567
C 17.7316 20.3352 27.3805
C 20.1567 20.179 24.9738
C 24.9704 17.8065 22.4155
C 22.6772 20.1262 22.4647
C 27.2234 20.1377 22.2058
C 22.6316 17.7822 24.7115
C 27.2353 17.5399 24.8076
C 24.9641 17.6286 27.2639
C 22.4984 20.2102 27.0115
C 24.9935 19.9497 24.9363
C 27.5332 19.6269 27.4276
C 29.5195 17.7592 22.4118
C 29.8925 17.4021 27.639
C 29.8936 19.8007 25.0493
C 15.4201 22.2517 22.3401
C 15.5274 27.0945 22.6413
C 15.3409 22.4932 27.2354
C 14.9969 24.8078 24.8744
C 14.857 27.5925 27.7245
C 20.1929 22.7533 22.5687
C 17.7421 24.8853 22.4692
C 19.9795 27.2455 22.6023
C 17.7278 22.7347 24.8589
C 20.0945 22.5114 27.2541
C 17.4626 27.4676 25.1271
C 17.2749 25.207 27.4803
C 19.965 25.1655 25.1493
C 19.8496 27.5037 27.4257
C 24.7792 22.3275 22.4861
C 22.403 25.0262 22.5322
C 27.0095 24.7376 22.4818
C 24.7814 26.9721 22.6047
C 22.486 22.3905 24.7457
C 27.0849 22.3735 25.0458
C 24.8517 22.4767 27.2296
C 22.38 27.1738 25.0825
C 22.5598 24.6836 27.3189
C 24.8024 24.8455 24.9472
C 27.2194 27.1671 25.074
C 27.2194 24.8313 27.2835
C 25.0157 27.2703 27.7621
C 29.529 22.6236 22.57
C 29.3967 27.1057 22.5701
C 29.6221 22.5218 27.1175
C 29.5849 24.9395 24.8746
C 29.6494 27.5334 27.3508
C 15.2904 29.809 24.8969
C 17.8848 29.6395 22.6198
C 17.654 29.7931 27.5572
C 20.1984 29.7422 25.0008
C 22.6176 29.3918 22.5705
C 27.0324 29.4188 22.5443
C 22.5738 29.5487 27.1537
C 24.8384 29.2613 25.0467
C 27.4465 29.842 27.3647
C 29.555 29.8132 24.5816
C 15.5934 15.7696 30.0427
C 19.973 15.4241 29.7155
C 25.0518 15.2278 29.4664
C 29.474 14.7732 29.8293
C 15.2386 20.5065 30.0778
C 17.7888 18.2597 29.8291
C 20.1089 20.3453 29.5909
C 22.5611 18.065 29.5527
C 27.6253 17.6276 30.1817
C 24.8999 19.9978 29.4482
C 29.7258 20.2117 29.7091
C 15.0324 25.5982 30.6469
C 17.5662 22.6197 29.8344
C 17.5455 27.8533 30.1807
C 20.0913 24.597 29.6921
C 22.4876 22.2983 29.2431
C 27.2254 22.3437 29.4062
C 22.4424 27.0247 29.5671
C 24.9674 24.8122 29.8653
C 27.5049 27.2908 30.2474
C 29.4949 24.432 29.9278
C 15.1442 29.9798 30.2383
C 20.398 29.7735 29.6255
C 24.9323 29.8229 29.4774
C 29.199 30.2843 30.2344
172
TIMESTEP: 400	Temperature (K): 152.46321	Potential Energy: -43.381287
C 16.1444 15.6899 15.5587
C 20.0066 15.4519 15.4288
C 25.0296 15.4386 15.3815
C 28.9178 15.7899 15.795
C 15.488 20.158 15.4422
C 18.3494 18.132 15.3638
C 20.611 20.3654 15.4984
C 22.5021 17.6845 15.2516
C 26.8597 18.0873 15.6014
C 24.7025 20.3151 15.4073
C 29.3659 20.0605 15.8292
C 15.6303 24.7696 15.5709
C 17.9069 22.3361 15.2038
C 18.1226 27.0291 15.7389
C 20.577 24.9547 15.3253
C 22.5128 22.63 15.125
C 27.156 22.5182 15.2476
C 22.6538 27.2153 15.4567
C 24.7811 24.6448 15.5835
C 26.8433 26.9866 15.6252
C 29.2689 25.0505 15.1336
C 15.6973 29.1907 16.1323
C 20.2812 29.3902 15.4922
C 24.6806 29.6405 15.7386
C 28.9935 29.3778 15.6768
C 15.6433 15.4271 19.9659
C 18.2271 15.3939 18.0501
C 20.3819 15.4279 20.2908
C 22.3488 15.4152 17.7395
C 26.9091 15.7018 17.9445
C 24.5938 15.1848 20.3224
C 29.4888 15.4732 20.2745
C 15.6416 17.9327 17.8843
C 15.6517 20.4147 20.0789
C 20.3022 17.9608 17.9495
C 17.9885 20.3542 17.7189
C 17.9514 17.7898 20.3726
C 20.1617 20.2002 20.0955
C 24.6484 17.7967 17.89
C 22.6201 20.2116 17.9169
C 26.9232 20.2566 17.9333
C 22.4697 17.8658 20.19
C 27.0272 17.9072 20.5208
C 24.7623 20.1732 20.1248
C 29.2549 18.0172 17.9987
C 29.4499 20.4279 20.3009
C 15.4794 22.5392 17.778
C 15.6087 26.7599 18.1966
C 15.4549 24.3784 20.2153
C 20.2422 22.4733 17.9236
C 17.9791 24.6859 17.8131
C 20.3081 27.0618 17.9265
C 18.0541 22.4569 20.1475
C 17.9152 26.9185 20.2908
C 20.3335 24.6098 20.1525
C 24.82 22.5846 17.8068
C 22.5584 24.8928 17.7924
C 27.1694 24.6467 17.8359
C 24.6868 27.163 18.0539
C 22.5464 22.4705 20.3538
C 27.1716 22.5514 20.1622
C 22.6485 27.0312 20.2299
C 24.7657 24.7798 20.0367
C 27.1757 27.1248 20.2892
C 29.6111 22.7099 17.6086
C 29.4267 26.933 17.6861
C 29.6552 24.7856 20.3191
C 15.5937 29.3871 20.0584
C 18.1882 29.327 18.0418
C 20.0592 29.4119 20.4167
C 22.3627 29.662 18.0216
C 26.6908 29.4739 18.1863
C 24.4641 29.5879 20.4401
C 29.3973 29.5469 20.1569
C 15.3319 15.7571 24.87
C 17.9495 15.328 22.5917
C 17.7205 15.9383 27.2363
C 20.1663 15.4385 24.8549
C 22.4632 15.4738 22.4761
C 27.0987 15.5666 22.5719
C 22.4709 15.4688 27.3601
C 24.3845 15.7065 24.8246
C 26.7334 15.6336 26.758
C 29.4323 15.552 24.7416
C 15.4848 17.7867 22.4139
C 15.2223 18.0951 27.2475
C 15.1059 20.2374 24.7247
C 20.0128 17.8428 22.6909
C 17.7752 20.2667 22.4876
C 17.7078 18.293 24.8565
C 20.2938 17.8799 27.3012
C 17.8618 20.3274 27.1584
C 20.1892 20.3045 24.9601
C 24.6098 17.9198 22.4991
C 22.3866 20.1392 22.4603
C 27.1595 20.2634 22.348
C 22.3406 18.1077 24.9128
C 26.8849 17.8923 24.6884
C 24.5415 18.0242 27.3146
C 22.5011 20.401 27.1244
C 24.8202 20.2843 24.8184
C 27.0819 20.4005 27.2761
C 29.8551 17.9669 22.4719
C 29.3844 18.0352 26.8009
C 29.5116 20.3775 24.6214
C 15.0401 22.4272 22.5676
C 15.2413 27.0703 22.2898
C 15.6023 22.4129 26.969
C 15.3246 24.8028 24.7389
C 15.8498 26.9351 27.2802
C 20.3599 22.4074 22.5965
C 17.8724 24.5923 22.5996
C 20.1687 26.9184 22.4169
C 17.8168 22.3092 24.7126
C 20.3169 22.3876 27.3016
C 17.9472 27.1116 24.6754
C 18.057 24.7878 27.0484
C 20.3147 24.6154 24.7161
C 20.2709 27.0819 26.8751
C 24.7735 22.3955 22.4981
C 22.6377 24.8058 22.3942
C 27.1948 24.7231 22.6074
C 24.8969 27.2575 22.4647
C 22.6814 22.5184 24.7547
C 27.0884 22.4362 24.7677
C 24.7509 22.5183 27.2887
C 22.4997 27.0479 24.5211
C 22.3279 24.7542 27.037
C 24.7953 24.9017 24.8116
C 27.4928 26.9679 24.602
C 27.2827 24.7495 26.8494
C 24.5344 27.2148 26.757
C 29.8143 22.573 22.5793
C 30.0574 27.1601 22.2552
C 29.8326 22.4275 27.0669
C 29.8059 24.836 24.6981
C 29.5633 27.1156 27.1506
C 15.6232 29.3072 24.9505
C 17.7329 29.4795 22.4912
C 18.2995 29.2724 27.0449
C 20.2161 29.5212 24.6577
C 22.2915 29.6332 22.5079
C 27.1198 29.6287 22.4594
C 22.4269 29.6123 27.1212
C 24.6541 29.8824 24.7257
C 26.9898 29.3603 26.7524
C 29.7412 29.2481 25.0308
C 15.3141 15.7244 29.3567
C 20.1233 15.6232 29.6167
C 24.8443 15.477 29.5115
C 28.5971 15.3206 29.1173
C 15.506 20.2849 29.4087
C 17.9277 18.0426 29.7069
C 20.3508 20.1134 29.4924
C 22.5149 17.8131 29.7978
C 26.9049 17.9365 29.2298
C 24.8023 20.4383 29.6241
C 29.5013 19.764 29.4182
C 15.9851 24.606 29.2778
C 18.1864 22.3645 29.9491
C 18.2046 26.9631 29.0839
C 20.5097 24.8023 29.5664
C 22.4625 22.3704 29.9256
C 27.3754 22.6219 29.8478
C 22.6012 27.1901 29.7474
C 24.7559 24.5558 29.592
C 26.873 26.8993 29.1383
C 29.4158 24.8589 29.3883
C 16.0178 29.3518 28.9981
C 20.4491 29.4378 29.6349
C 24.8387 29.6566 29.2548
C 28.2535 29.673 30.1088
172
TIMESTEP: 500	Temperature (K): 115.40799	Potential Energy: -42.36833
C 15.0701 15.4024 14.733
C 20.0455 15.8239 15.0454
C 24.2231 14.7265 15.5223
C 29.148 14.7128 15.5745
C 14.7113 20.12 14.9435
C 17.7207 18.0098 14.8666
C 20.5098 20.048 15.0683
C 22.674 17.7702 15.5423
C 27.1078 17.4749 15.3355
C 24.7916 20.2039 15.5148
C 29.8558 20.5258 15.0873
C 14.9975 24.5938 15.2272
C 17.5407 22.51 15.2297
C 17.1914 27.2421 15.2249
C 19.778 25.0493 15.3275
C 22.3545 22.6692 15.526
C 27.0981 22.2912 15.2208
C 22.7782 27.4214 15.5504
C 25.0631 25.0317 15.3274
C 27.1021 27.8307 15.1656
C 29.3312 24.9112 15.3485
C 14.8832 29.5832 15.2204
C 20.0938 29.4679 15.1567
C 25.0231 30.3285 15.7421
C 30.3449 30.5049 14.9744
C 15.3628 15.0805 19.7348
C 17.6889 15.4341 17.2622
C 19.933 15.1873 19.9578
C 22.2716 15.456 17.9256
C 27.0543 14.5236 18.0489
C 24.7374 15.1731 20.2128
C 29.5373 14.9277 20.2173
C 15.4354 17.5244 17.3183
C 15.2052 19.885 19.6558
C 20.0528 17.8319 17.8157
C 17.6687 19.9861 17.3036
C 17.6161 17.6295 19.9669
C 20.048 20.2554 20.1276
C 24.95 17.2273 17.6594
C 22.4955 20.1845 17.9081
C 27.1714 19.7849 17.7098
C 22.4646 17.8182 20.0497
C 27.144 17.4928 19.9539
C 24.8589 20.0742 20.1317
C 29.9384 17.9959 17.1517
C 29.6815 20.156 20.1804
C 15.3312 22.4372 17.5592
C 14.9173 27.2803 17.5577
C 15.3919 24.8181 19.8704
C 20.2093 22.5863 17.806
C 17.5857 24.9685 17.5299
C 20.0936 27.2823 17.5912
C 17.6461 22.5718 19.8567
C 17.7417 27.2484 19.7977
C 20.1938 25.0048 19.9357
C 24.763 22.6254 17.865
C 22.6365 25.0961 17.722
C 27.3109 25.0362 17.7728
C 25.1619 27.62 17.6405
C 22.5585 22.5351 20.3041
C 27.2597 22.3248 20.1932
C 22.5865 27.305 20.1938
C 25.0718 24.8161 20.2843
C 27.4492 27.4048 20.0925
C 29.3943 22.3301 17.7653
C 29.2993 27.7388 17.4499
C 29.4307 25.0574 20.1131
C 15.4534 29.7209 19.7234
C 17.6274 29.7235 17.2811
C 19.8311 29.7934 19.7567
C 22.5525 29.7108 18.0441
C 27.7328 30.486 17.7348
C 25.3677 30.0625 20.2579
C 30.1238 29.6708 20.423
C 15.1645 15.6622 25.1108
C 17.7031 15.1418 22.3216
C 17.4915 14.8369 27.5523
C 19.8294 15.0281 24.9022
C 22.3594 15.1601 22.6912
C 27.1021 14.9565 22.2879
C 22.3808 15.2213 27.2762
C 25.3196 15.076 25.1241
C 27.7645 14.9962 27.6879
C 29.5084 14.9325 24.5803
C 15.1482 17.788 22.5326
C 15.4831 17.758 27.3822
C 15.4824 19.9456 24.9604
C 20.002 17.6794 22.424
C 17.7942 20.0392 22.3408
C 17.7601 17.5751 25.2309
C 20.0667 17.653 27.5125
C 17.4569 20.2547 27.4511
C 20.1884 20.0062 24.9822
C 24.9084 17.7305 22.7927
C 22.4682 19.9556 22.6143
C 27.2873 20.0739 22.4182
C 22.5657 17.4683 25.1223
C 27.3132 17.5598 24.9545
C 25.0512 17.3945 27.3809
C 22.4916 20.0172 27.2593
C 25.2498 20.1112 25.0354
C 27.5044 19.9464 27.3468
C 29.5283 17.5207 22.3599
C 29.8766 17.66 27.744
C 29.9059 20.0458 25.0498
C 15.6817 22.4824 22.255
C 15.2104 27.0968 22.3657
C 14.9371 22.326 26.9124
C 15.4759 24.7544 24.7464
C 15.0423 27.3507 27.8189
C 20.0715 22.4378 22.6105
C 18.0761 24.958 22.2527
C 20.2934 27.264 22.3551
C 17.7873 22.456 25.0791
C 19.9752 22.3802 27.4256
C 17.3606 27.2664 24.9292
C 17.353 24.818 27.4465
C 19.9678 24.9314 25.2773
C 19.4607 27.4522 27.4208
C 25.0456 22.474 22.6405
C 22.5725 24.8638 22.5342
C 27.2019 24.8413 22.5172
C 25.0235 27.3347 22.4016
C 22.6011 22.481 24.8206
C 27.3647 22.604 24.9202
C 24.917 22.5959 27.0731
C 22.5082 27.1302 24.9811
C 22.5106 24.8507 27.2492
C 25.0147 24.9278 24.9636
C 27.5301 27.401 24.8515
C 27.5153 24.9711 27.405
C 25.0125 27.2847 27.4383
C 29.7141 22.4023 22.6071
C 30.0809 27.3727 22.6065
C 29.619 22.4637 27.2796
C 29.7213 25.0281 25.2303
C 29.8597 27.895 27.2377
C 15.2147 29.687 24.6357
C 17.6823 29.428 22.3068
C 17.7359 30.1027 27.1779
C 19.9508 29.9207 24.6169
C 22.662 29.6807 22.2979
C 27.6788 29.7119 22.6499
C 22.4962 29.8456 26.7522
C 25.345 29.6066 24.9834
C 27.3984 30.2668 27.4042
C 30.4103 30.0881 24.3064
C 14.8066 14.9333 29.6522
C 19.7972 15.1822 29.8534
C 24.8941 15.0403 29.5348
C 30.25 15.5057 30.4725
C 15.3093 20.4981 30.0198
C 17.7257 17.5582 29.7787
C 20.2192 19.8357 30.2011
C 22.7409 17.5184 29.6147
C 27.4331 17.5739 29.9158
C 24.8894 19.9188 29.6747
C 29.7041 20.1358 29.776
C 15.3453 24.196 29.9874
C 18.1391 22.3165 30.162
C 17.3867 27.376 30.346
C 19.8633 24.9477 29.4274
C 22.5446 22.4256 29.4773
C 27.3149 22.4246 29.6347
C 22.648 27.432 29.4666
C 25.0805 24.8595 29.7019
C 27.4368 27.5092 29.6603
C 29.9358 25.1162 29.4738
C 15.2826 30.0952 30.1415
C 20.3561 29.7589 29.4312
C 24.9071 29.9265 29.3403
C 29.2789 30.3496 30.1535
172
TIMESTEP: 600	Temperature (K): 182.04212	Potential Energy: -43.616325
C 14.8067 15.933 14.8182
C 20.2271 15.2895 14.6312
C 24.908 15.1663 15.7673
C 29.396 14.2195 15.7215
C 15.7954 20.4963 15.5611
C 17.6882 17.9686 15.4413
C 20.1119 20.1504 15.3095
C 22.6123 17.9756 15.3935
C 26.932 17.56 15.4101
C 25.4558 20.2076 15.1799
C 28.724 20.0543 15.3119
C 15.2634 24.7199 15.356
C 17.9308 22.915 15.3892
C 17.7084 26.8852 15.1603
C 20.4436 24.9095 15.2819
C 22.9317 22.3904 15.4437
C 27.0094 22.7435 15.891
C 22.5499 27.2969 15.6745
C 25.0197 25.1486 15.6176
C 27.3299 27.4319 15.6103
C 29.2952 24.911 15.3803
C 14.9558 29.2431 15.2888
C 20.0216 29.2678 15.3095
C 24.9943 29.794 15.8358
C 30.9799 31.0888 14.8471
C 15.821 15.3463 19.7315
C 18.2 15.455 17.4205
C 20.0435 15.5358 20.1538
C 22.2794 15.4637 17.5998
C 27.3316 15.4005 17.7957
C 24.5972 15.0155 19.9204
C 29.5929 15.6576 20.168
C 15.3196 17.9595 17.8969
C 15.444 20.3094 20.2988
C 20.2722 17.8915 17.7031
C 17.8205 20.3609 17.9303
C 17.8652 17.993 20.2073
C 20.0421 20.3338 20.0177
C 24.7388 17.7891 17.8478
C 22.4957 20.2219 17.8397
C 27.2437 19.9924 18.0736
C 22.3723 17.7454 20.2028
C 27.0112 17.6799 20.3799
C 24.797 20.0414 20.4791
C 29.4803 17.7153 17.8237
C 29.797 19.807 20.2156
C 15.4758 22.6909 18.0216
C 15.3203 26.9107 17.6841
C 15.4603 24.9124 20.2841
C 20.2736 22.5901 17.8808
C 17.9448 24.8207 17.9094
C 20.2578 27.1038 17.8987
C 17.8138 22.6013 20.3081
C 17.6736 27.1774 20.0959
C 20.1089 24.8593 20.0801
C 24.8453 22.4546 18.1059
C 22.7806 24.9518 18.2077
C 27.1533 24.9086 18.0979
C 24.9328 27.2915 18.0536
C 22.505 22.4685 20.3283
C 27.1978 22.2683 20.2066
C 22.2866 27.188 20.3304
C 24.8976 24.7213 20.3593
C 27.2316 27.0731 20.5353
C 29.6422 22.4506 17.8517
C 29.6588 26.9843 18.0974
C 29.7923 24.6544 20.4049
C 15.1347 29.4076 20.0933
C 17.8039 29.1972 17.6835
C 20.0147 29.5547 20.2545
C 22.1156 29.6245 17.7395
C 27.2273 29.3553 18.2688
C 24.7172 29.4926 20.434
C 29.6759 29.3916 20.6049
C 15.489 15.5328 25.0866
C 17.9009 15.3374 22.3798
C 17.6259 16.2691 27.2687
C 19.8582 15.4919 24.784
C 22.2689 15.1451 22.6062
C 27.1322 15.1354 22.5481
C 22.5446 15.4184 26.9839
C 24.7487 15.3118 24.7267
C 27.6182 15.0662 27.4087
C 29.7101 14.8654 24.8955
C 15.3386 17.8554 22.366
C 14.7953 17.6279 27.7231
C 15.1949 20.2564 25.062
C 20.2125 17.9065 22.4973
C 17.8145 20.4017 22.73
C 17.8025 17.9297 24.6569
C 20.3684 18.0255 27.159
C 17.8022 20.1646 26.8463
C 20.3504 20.2182 24.8214
C 24.5393 17.4245 22.3972
C 22.3886 20.1279 22.3053
C 27.1352 19.7813 22.5604
C 22.5307 17.6946 24.8654
C 27.2809 17.6212 24.7615
C 24.8941 17.7623 27.0012
C 22.6448 20.1655 27.0069
C 24.9632 20.0969 24.8025
C 27.1466 20.0256 27.1236
C 29.7014 17.5395 22.7965
C 29.9117 17.7346 27.183
C 29.8034 20.0723 24.9895
C 15.2693 22.5795 22.9306
C 15.4266 27.108 22.5285
C 15.6358 22.7568 27.1263
C 15.3909 24.9077 24.8615
C 14.8857 26.8919 27.0736
C 20.1287 22.5466 22.5143
C 17.8789 24.826 22.5263
C 19.915 27.3086 22.6159
C 17.8667 22.6882 24.8813
C 20.2257 22.5603 26.9865
C 17.628 27.2326 25.0318
C 17.8447 25.0126 27.0581
C 20.3985 24.7906 24.836
C 20.338 27.0297 27.3294
C 24.8567 22.4612 22.4928
C 22.3793 24.8094 22.4586
C 27.2923 24.7113 22.5788
C 24.7661 27.0461 22.5014
C 22.4678 22.4332 24.7399
C 27.1615 22.3341 24.7528
C 24.8286 22.3579 27.0495
C 22.6263 27.3891 24.6359
C 22.5172 24.749 27.1574
C 24.8505 24.748 24.8322
C 27.0526 27.2284 24.5698
C 27.2056 24.9171 26.9136
C 24.6929 27.1073 26.9272
C 29.4437 22.2707 22.5959
C 29.4363 27.0593 22.6738
C 29.4395 22.2571 27.3452
C 29.5402 24.5492 24.8095
C 29.7019 27.1611 26.789
C 15.1686 29.8242 24.7099
C 17.7323 29.928 22.6167
C 17.4128 29.6129 27.0033
C 19.9204 29.7507 24.7153
C 22.3132 29.9011 22.5008
C 27.1717 29.6738 22.5177
C 22.4234 29.5373 27.1995
C 24.6829 29.7393 24.6748
C 27.0496 29.4867 26.8034
C 29.5659 29.6242 24.7216
C 15.2753 14.7999 29.4645
C 20.2023 15.3365 29.2471
C 24.9765 15.1972 29.0546
C 30.4427 17.1915 30.3206
C 15.6914 20.1942 29.4288
C 18.111 17.9123 29.9978
C 20.1324 20.1644 29.4278
C 22.8001 17.7511 29.4516
C 27.243 17.7518 29.3013
C 24.9126 20.2153 29.6252
C 29.2235 20.1179 29.8704
C 15.5751 24.7915 30.0736
C 17.887 22.4514 29.2988
C 18.1149 27.1325 29.7152
C 20.3317 24.5121 29.6959
C 22.7181 22.4077 29.6523
C 27.0945 22.8135 29.4632
C 22.1343 27.3672 29.9562
C 24.8966 24.9586 29.3022
C 27.2835 27.407 29.2449
C 29.4972 25.0489 29.2629
C 15.7164 29.7125 29.836
C 19.6093 29.9567 29.011
C 24.7192 29.4546 29.4488
C 29.7645 29.8543 28.7623
172
TIMESTEP: 700	Temperature (K): 164.68485	Potential Energy: -42.941472