172
TIMESTEP: 0	Temperature (K): 50.0	Potential Energy: -41.803497
C 15.0 15.0 15.0
C 20.0 15.0 15.0
C 25.0 15.0 15.0
C 30.0 15.0 15.0
C 15.0 20.0 15.0
C 17.5 17.5 15.0
C 20.0 20.0 15.0
C 22.5 17.5 15.0
C 27.5 17.5 15.0
C 25.0 20.0 15.0
C 30.0 20.0 15.0
C 15.0 25.0 15.0
C 17.5 22.5 15.0
C 17.5 27.5 15.0
C 20.0 25.0 15.0
C 22.5 22.5 15.0
C 27.5 22.5 15.0
C 22.5 27.5 15.0
C 25.0 25.0 15.0
C 27.5 27.5 15.0
C 30.0 25.0 15.0
C 15.0 30.0 15.0
C 20.0 30.0 15.0
C 25.0 30.0 15.0
C 30.0 30.0 15.0
C 15.0 15.0 20.0
C 17.5 15.0 17.5
C 20.0 15.0 20.0
C 22.5 15.0 17.5
C 27.5 15.0 17.5
C 25.0 15.0 20.0
C 30.0 15.0 20.0
C 15.0 17.5 17.5
C 15.0 20.0 20.0
C 20.0 17.5 17.5
C 17.5 20.0 17.5
C 17.5 17.5 20.0
C 20.0 20.0 20.0
C 25.0 17.5 17.5
C 22.5 20.0 17.5
C 27.5 20.0 17.5
C 22.5 17.5 20.0
C 27.5 17.5 20.0
C 25.0 20.0 20.0
C 30.0 17.5 17.5
C 30.0 20.0 20.0
C 15.0 22.5 17.5
C 15.0 27.5 17.5
C 15.0 25.0 20.0
C 20.0 22.5 17.5
C 17.5 25.0 17.5
C 20.0 27.5 17.5
C 17.5 22.5 20.0
C 17.5 27.5 20.0
C 20.0 25.0 20.0
C 25.0 22.5 17.5
C 22.5 25.0 17.5
C 27.5 25.0 17.5
C 25.0 27.5 17.5
C 22.5 22.5 20.0
C 27.5 22.5 20.0
C 22.5 27.5 20.0
C 25.0 25.0 20.0
C 27.5 27.5 20.0
C 30.0 22.5 17.5
C 30.0 27.5 17.5
C 30.0 25.0 20.0
C 15.0 30.0 20.0
C 17.5 30.0 17.5
C 20.0 30.0 20.0
C 22.5 30.0 17.5
C 27.5 30.0 17.5
C 25.0 30.0 20.0
C 30.0 30.0 20.0
C 15.0 15.0 25.0
C 17.5 15.0 22.5
C 17.5 15.0 27.5
C 20.0 15.0 25.0
C 22.5 15.0 22.5
C 27.5 15.0 22.5
C 22.5 15.0 27.5
C 25.0 15.0 25.0
C 27.5 15.0 27.5
C 30.0 15.0 25.0
C 15.0 17.5 22.5
C 15.0 17.5 27.5
C 15.0 20.0 25.0
C 20.0 17.5 22.5
C 17.5 20.0 22.5
C 17.5 17.5 25.0
C 20.0 17.5 27.5
C 17.5 20.0 27.5
C 20.0 20.0 25.0
C 25.0 17.5 22.5
C 22.5 20.0 22.5
C 27.5 20.0 22.5
C 22.5 17.5 25.0
C 27.5 17.5 25.0
C 25.0 17.5 27.5
C 22.5 20.0 27.5
C 25.0 20.0 25.0
C 27.5 20.0 27.5
C 30.0 17.5 22.5
C 30.0 17.5 27.5
C 30.0 20.0 25.0
C 15.0 22.5 22.5
C 15.0 27.5 22.5
C 15.0 22.5 27.5
C 15.0 25.0 25.0
C 15.0 27.5 27.5
C 20.0 22.5 22.5
C 17.5 25.0 22.5
C 20.0 27.5 22.5
C 17.5 22.5 25.0
C 20.0 22.5 27.5
C 17.5 27.5 25.0
C 17.5 25.0 27.5
C 20.0 25.0 25.0
C 20.0 27.5 27.5
C 25.0 22.5 22.5
C 22.5 25.0 22.5
C 27.5 25.0 22.5
C 25.0 27.5 22.5
C 22.5 22.5 25.0
C 27.5 22.5 25.0
C 25.0 22.5 27.5
C 22.5 27.5 25.0
C 22.5 25.0 27.5
C 25.0 25.0 25.0
C 27.5 27.5 25.0
C 27.5 25.0 27.5
C 25.0 27.5 27.5
C 30.0 22.5 22.5
C 30.0 27.5 22.5
C 30.0 22.5 27.5
C 30.0 25.0 25.0
C 30.0 27.5 27.5
C 15.0 30.0 25.0
C 17.5 30.0 22.5
C 17.5 30.0 27.5
C 20.0 30.0 25.0
C 22.5 30.0 22.5
C 27.5 30.0 22.5
C 22.5 30.0 27.5
C 25.0 30.0 25.0
C 27.5 30.0 27.5
C 30.0 30.0 25.0
C 15.0 15.0 30.0
C 20.0 15.0 30.0
C 25.0 15.0 30.0
C 30.0 15.0 30.0
C 15.0 20.0 30.0
C 17.5 17.5 30.0
C 20.0 20.0 30.0
C 22.5 17.5 30.0
C 27.5 17.5 30.0
C 25.0 20.0 30.0
C 30.0 20.0 30.0
C 15.0 25.0 30.0
C 17.5 22.5 30.0
C 17.5 27.5 30.0
C 20.0 25.0 30.0
C 22.5 22.5 30.0
C 27.5 22.5 30.0
C 22.5 27.5 30.0
C 25.0 25.0 30.0
C 27.5 27.5 30.0
C 30.0 25.0 30.0
C 15.0 30.0 30.0
C 20.0 30.0 30.0
C 25.0 30.0 30.0
C 30.0 30.0 30.0
172
TIMESTEP: 100	Temperature (K): 160.8724	Potential Energy: -44.225176
C 15.5862 15.7079 15.6297
C 20.373 15.7466 15.5807
C 24.5038 15.7238 15.6078
C 29.5138 15.8062 15.6805
C 15.5274 20.1523 15.6677
C 17.9967 18.0602 15.5405
C 20.2922 20.278 15.6983
C 22.5255 18.114 15.5226
C 27.1892 17.9939 15.4823
C 24.7536 20.3399 15.67
C 29.5232 20.256 15.7354
C 15.546 24.6729 15.6325
C 17.9488 22.4706 15.6195
C 17.8672 26.8616 15.5159
C 20.4324 24.7544 15.6566
C 22.6311 22.4894 15.6959
C 27.0181 22.5302 15.639
C 22.4496 27.0207 15.5252
C 24.7093 24.7104 15.5377
C 27.1343 27.0231 15.532
C 29.5828 24.6879 15.8501
C 15.8344 29.4294 15.301
C 19.9623 29.2976 15.5926
C 24.7824 29.3131 15.3575
C 29.4744 29.3127 15.592
C 15.738 15.661 20.439
C 17.9052 15.6555 17.8963
C 20.3428 15.5669 20.2201
C 22.5352 15.7146 18.0493
C 27.1027 15.5289 17.8236
C 24.6637 15.4591 20.2374
C 29.298 15.5803 20.4813
C 15.4752 18.0203 18.0147
C 15.5744 20.2765 20.3479
C 20.2673 17.9539 17.9253
C 17.954 20.2175 18.0315
C 18.0312 17.972 20.3574
C 20.3291 20.2374 20.243
C 24.7527 18.0161 18.0485
C 22.5303 20.3278 17.9517
C 26.998 20.1945 18.0725
C 22.6068 18.0732 20.3346
C 26.9912 17.947 20.3916
C 24.6189 20.3951 20.3107
C 29.3993 18.0364 18.0882
C 29.4255 20.3608 20.298
C 15.7061 22.4947 18.0742
C 15.4622 26.9323 18.0415
C 15.5637 24.7339 20.3696
C 20.3629 22.6236 18.0014
C 17.8993 24.721 17.9641
C 20.1817 27.038 17.9649
C 18.0407 22.5236 20.2589
C 17.9732 26.975 20.2573
C 20.3607 24.8413 20.2462
C 24.7274 22.4351 17.982
C 22.6467 24.7692 17.9296
C 26.9738 24.6989 18.0132
C 24.834 27.0827 17.8833
C 22.503 22.5812 20.1845
C 26.9084 22.5993 20.3524
C 22.6528 27.0468 20.1794
C 24.7082 24.8476 20.362
C 26.9079 27.1439 20.2649
C 29.2835 22.4555 18.1652
C 29.5588 27.2939 18.2336
C 29.3905 24.6975 20.313
C 15.6959 29.2073 20.2055
C 17.8313 29.4207 17.9176
C 20.3467 29.3697 20.3071
C 22.5879 29.3701 17.8752
C 26.9748 29.5621 17.9191
C 24.6931 29.4573 20.2029
C 29.0355 29.6362 20.4197
C 15.8908 15.6153 24.7445
C 18.1629 15.6661 22.5454
C 18.0935 15.7049 27.1013
C 20.3556 15.6179 24.7094
C 22.4753 15.8462 22.4725
C 26.8088 15.5977 22.5263
C 22.4974 15.6302 26.9401
C 24.6212 15.4878 24.765
C 27.0682 15.4786 26.9765
C 29.2707 15.4729 24.4807
C 15.5481 17.9938 22.5192
C 15.4463 17.9839 26.9537
C 15.5861 20.3263 24.7011
C 20.3676 18.1225 22.6198
C 17.9921 20.3872 22.5342
C 17.9096 17.9864 24.7947
C 20.3135 18.0284 26.9924
C 17.9873 20.1788 27.2199
C 20.3126 20.3924 24.7898
C 24.6907 18.0286 22.5375
C 22.477 20.3745 22.5046
C 26.9387 20.2381 22.4718
C 22.4606 18.0764 24.7581
C 26.9385 17.8826 24.699
C 24.7436 17.9283 27.0584
C 22.623 20.2768 27.0156
C 24.7692 20.2734 24.7618
C 27.088 20.4137 26.9719
C 29.287 18.0441 22.4413
C 29.4577 17.9924 27.0742
C 29.4139 20.2008 24.7097
C 15.7908 22.5454 22.437
C 15.571 26.8463 22.6598
C 15.5176 22.4461 26.9008
C 15.5952 24.6209 24.7193
C 15.5865 26.9851 27.0172
C 20.3525 22.514 22.4641
C 18.0908 24.6315 22.4637
C 20.3513 27.0526 22.5447
C 18.0394 22.5522 24.7562
C 20.2818 22.521 27.0286
C 18.0026 26.8991 24.6412
C 18.0048 24.7262 27.0408
C 20.2279 24.6565 24.6277
C 20.1725 27.0205 27.1353
C 24.5491 22.5351 22.4881
C 22.508 24.7658 22.5141
C 26.924 24.7778 22.4531
C 24.6099 27.0715 22.5175
C 22.4796 22.4924 24.7522
C 26.9938 22.5357 24.5917
C 24.649 22.5288 26.9767
C 22.4076 27.0148 24.7393
C 22.4847 24.6702 26.9024
C 24.6326 24.6722 24.6702
C 27.0294 26.9558 24.6803
C 26.974 24.5609 27.0597
C 24.6892 26.9442 27.0891
C 29.2789 22.4973 22.4573
C 29.2857 27.0511 22.3505
C 29.5643 22.5082 26.8834
C 29.3563 24.671 24.6045
C 29.5338 26.8668 27.013
C 15.6367 29.2883 24.6425
C 18.0192 29.2805 22.4177
C 18.0445 29.5289 26.9164
C 20.3057 29.2936 24.7448
C 22.4591 29.2444 22.496
C 26.8656 29.4514 22.5871
C 22.4903 29.256 27.051
C 24.703 29.2629 24.7989
C 27.1399 29.2595 26.9022
C 29.3966 29.1246 24.611
C 15.3926 16.2448 29.643
C 20.4352 15.801 29.3542
C 24.6228 15.4387 29.1582
C 29.4567 15.7866 29.4475
C 15.4277 20.3979 29.2861
C 18.1086 18.0138 29.6524
C 20.3788 20.3432 29.4623
C 22.4958 18.0333 29.4322
C 26.935 18.0276 29.3629
C 24.7166 20.2793 29.4939
C 29.3359 20.3213 29.4092
C 15.5549 24.5337 29.4594
C 17.9345 22.4433 29.3678
C 17.8667 26.9293 29.4532
C 20.316 24.5124 29.4971
C 22.535 22.5177 29.2792
C 27.0136 22.4526 29.4143
C 22.494 26.8762 29.3525
C 24.6358 24.5819 29.4045
C 27.0367 26.9202 29.3028
C 29.2985 24.5933 29.2518
C 15.4854 29.2433 29.4582
C 20.3337 29.4373 29.279
C 24.874 29.4247 29.2371
C 29.6168 28.9664 29.4896
172
TIMESTEP: 200	Temperature (K): 134.90937	Potential Energy: -43.65084
C 14.6564 15.4852 15.1814
C 19.8557 15.4662 15.0596
C 25.0457 15.3353 15.1972
C 29.7742 15.1003 15.1391
C 15.3319 19.7667 15.1699
C 17.8622 17.9345 15.3032
C 20.1394 20.1896 14.9866
C 22.6424 17.6383 15.0585
C 27.2369 17.702 15.4633
C 25.1515 20.0897 15.2542
C 29.5164 19.859 15.3314
C 15.1378 25.0591 15.3315
C 17.5826 22.3421 15.2265
C 17.812 26.9428 15.2042
C 20.161 24.578 15.295
C 22.736 22.3945 14.6693
C 27.7959 22.6669 15.1223
C 22.3962 27.3695 15.2702
C 24.8232 24.7879 15.1644
C 27.2524 27.1155 15.4168
C 29.9528 25.4044 15.4765
C 15.5509 29.8601 15.0966
C 19.8763 29.7412 15.2361
C 24.881 29.5195 15.2427
C 29.6143 29.6838 15.1596
C 15.3184 15.2269 19.6717
C 17.7245 15.2381 17.4512
C 20.1805 15.1808 19.987
C 22.493 15.2849 17.4149
C 27.2444 15.3272 17.5915
C 24.8712 15.3057 20.0842
C 29.5646 15.11 19.9348
C 15.2316 17.8736 17.8004
C 15.225 20.1145 20.2645
C 20.2308 17.7845 17.5644
C 17.6013 20.0175 17.8214
C 17.7704 17.5328 19.9272
C 20.1086 20.0284 20.1753
C 24.9777 17.6486 17.7228
C 22.6832 20.3792 17.3782
C 27.3545 20.0337 17.6385
C 22.3963 17.8117 20.0116
C 27.2054 17.6203 20.1766
C 24.7877 20.1556 20.0678
C 29.6775 17.6633 17.7735
C 29.7958 20.0578 20.0228
C 15.1349 22.4448 17.5037
C 15.4934 27.421 17.6412
C 15.1735 24.995 19.9885
C 19.9461 22.3783 17.7715
C 17.5966 24.7774 17.7351
C 20.1125 27.2208 17.7201
C 17.6456 22.3895 20.1742
C 17.8019 27.408 20.0859
C 20.1234 24.9179 19.9718
C 25.121 22.5503 17.8095
C 22.4517 24.7417 17.608
C 27.5367 24.9999 17.8324
C 24.8372 26.9289 17.6669
C 22.3704 22.4872 20.0911
C 27.3513 22.5248 20.2107
C 22.4863 27.1008 20.0307
C 24.8931 24.8998 20.2838
C 27.3432 27.3126 20.28
C 29.8828 22.5093 17.5246
C 29.7617 27.423 17.934
C 29.904 24.9967 20.4126
C 15.2788 29.9452 19.9156
C 17.7681 29.84 17.9073
C 20.1774 29.7407 19.9813
C 22.455 29.6037 17.5875
C 27.1727 29.4557 17.7969
C 24.6691 29.5172 20.1835
C 29.4823 29.8681 19.8973
C 15.3247 15.1316 25.0895
C 17.5471 15.0784 22.3444
C 17.5234 15.1667 27.5995
C 20.0609 15.21 25.0326
C 22.3525 14.7289 22.6129
C 27.1533 15.0178 22.6386
C 22.5183 15.2957 27.5837
C 24.7378 15.1782 25.0339
C 27.2966 15.5911 27.1928
C 29.8433 15.3284 25.2068
C 15.0857 17.3368 22.4923
C 15.3151 18.0063 26.8988
C 15.1122 20.3683 24.5456
C 20.21 17.5618 22.4903
C 17.7315 19.9548 22.6017
C 17.7678 17.5902 24.9339
C 20.0823 17.584 27.2077
C 17.8421 20.21 27.288
C 20.1534 20.0177 24.8512
C 24.7537 17.5335 22.4716
C 22.5235 19.9878 22.5744
C 27.3574 20.011 22.4166
C 22.4751 17.6005 24.9504
C 27.3534 17.6625 24.6579
C 24.9196 17.7547 27.3207
C 22.4364 20.0027 27.3328
C 25.0484 20.0882 24.8322
C 27.3635 20.1985 27.0908
C 29.7378 17.3631 22.3694
C 29.6659 17.8545 27.2634
C 29.7556 19.9815 24.7722
C 14.7123 22.7812 22.2475
C 15.1801 27.5802 22.4284
C 15.09 22.4168 27.5548
C 15.2011 24.6358 24.9417
C 15.2459 27.3098 27.2572
C 20.1759 22.3407 22.5751
C 17.618 24.8333 22.5292
C 20.176 27.429 22.4559
C 17.7682 22.5621 24.8999
C 20.3346 22.5434 27.4373
C 17.5233 27.1962 24.8353
C 17.6238 24.8566 27.298
C 20.0724 24.9301 24.7617
C 19.8531 27.2285 27.3981
C 24.757 22.5639 22.635
C 22.5034 24.9083 22.5935
C 27.3214 24.9112 22.464
C 24.7553 27.389 22.6519
C 22.5845 22.4286 24.9549
C 27.4014 22.5294 24.8295
C 24.8764 22.6559 27.321
C 22.4411 27.4873 25.0851
C 22.5512 24.9379 27.1743
C 24.8947 24.9821 24.8182
C 27.2939 27.4118 24.9512
C 27.3514 24.9735 27.1683
C 25.0373 27.4229 27.2718
C 29.9496 22.3986 22.4739
C 29.77 27.7705 22.6727
C 29.8664 22.5456 27.1932
C 29.7948 24.8965 24.5501
C 29.851 27.2447 27.1417
C 15.3113 29.7908 24.9867
C 17.631 29.7348 22.2803
C 17.7168 29.5191 27.3015
C 19.9444 29.5993 24.7973
C 22.6212 29.8906 22.8188
C 27.2107 29.8065 22.5242
C 22.4293 29.8399 27.6512
C 24.9467 29.7817 25.0976
C 27.5024 29.6199 27.5383
C 29.636 29.9849 25.1562
C 14.8078 15.8181 30.4244
C 19.9177 15.3649 29.9888
C 25.3358 15.4474 29.7118
C 29.8286 15.1727 29.5754
C 15.3344 19.9272 29.5619
C 17.9742 17.8597 29.6477
C 20.3287 20.1575 29.6745
C 22.4231 17.5343 30.0012
C 27.41 17.9585 29.6456
C 24.8754 19.9792 29.6281
C 29.747 20.0773 29.6091
C 15.0948 24.9892 29.7793
C 17.7179 22.4344 29.7029
C 17.7197 27.1497 29.6946
C 20.2445 24.7962 29.7197
C 22.6849 22.5867 30.1661
C 27.3722 22.7235 29.7227
C 22.3962 27.4386 29.8568
C 24.7801 25.0642 29.839
C 27.4957 27.1396 29.645
C 29.9897 25.0705 29.5308
C 14.9638 30.1367 30.3407
C 19.619 29.7573 30.0184
C 25.1041 29.5153 29.9531
C 30.0633 30.0115 30.0608
172
TIMESTEP: 300	Temperature (K): 130.52451	Potential Energy: -43.535637
C 14.1165 15.1743 15.0718
C 20.5311 15.7755 15.0809
C 24.7416 15.4762 15.3341
C 29.4612 14.5003 15.1778
C 14.8962 20.3531 15.387
C 17.4982 17.9123 14.7214
C 20.124 20.2513 15.4493
C 22.6756 18.1457 15.4606
C 27.406 17.3806 14.7243
C 25.2401 20.0005 15.0439
C 29.741 20.036 15.2991
C 15.4275 24.7694 15.4932
C 17.7146 22.537 15.4606
C 17.7989 27.4535 15.2607
C 19.9758 24.8762 15.2476
C 22.5414 22.2839 15.763
C 27.4384 22.4348 15.6351
C 22.6849 26.8659 15.6235
C 24.9791 24.7895 15.2049
C 27.4353 27.2162 15.2399
C 29.8393 24.5837 15.6047
C 15.5408 30.1826 15.2204
C 20.9261 29.5467 15.0889
C 24.7265 29.3792 15.3427
C 29.6025 29.9034 14.9979
C 15.345 15.2123 20.0527
C 17.6331 15.2685 17.4284
C 20.1778 15.4382 20.0939
C 22.4386 15.5857 17.7016
C 27.1178 15.1003 17.5359
C 24.9966 15.4755 20.0529
C 29.5159 15.2888 20.2412
C 15.0901 17.5176 17.3912
C 15.1665 20.0162 19.8958
C 19.9169 17.6249 17.6044
C 17.4868 19.8591 17.4694
C 17.6211 17.6342 19.8241
C 20.0031 19.9198 20.1131
C 25.076 17.6395 17.6638
C 22.5797 20.141 17.9841
C 27.5476 19.9601 17.7672
C 22.6322 17.8482 20.2364
C 27.2642 17.6465 20.0681
C 25.0787 19.9955 20.0315
C 29.5147 17.2718 17.2888
C 29.6202 20.2372 20.3561
C 15.3177 22.5179 17.8946
C 15.2165 27.5179 17.5892
C 15.3064 24.9106 20.068
C 20.292 22.5329 17.7631
C 17.7143 24.8354 17.7264
C 20.0721 27.2448 17.6172
C 17.9417 22.2235 19.9926
C 17.6255 27.3081 20.1289
C 20.0415 24.8837 20.0579
C 25.1252 22.3744 17.8612
C 22.518 24.7178 17.8652
C 27.4736 25.0612 17.7385
C 24.9547 27.2026 17.8505
C 22.5788 22.4269 20.1803
C 27.2626 22.4028 20.2594
C 22.5616 26.8956 20.13
C 25.0032 24.9101 20.0411
C 27.2337 27.5101 19.9159
C 29.6168 22.445 17.9753
C 29.6912 27.528 17.6142
C 29.4983 24.8082 20.214
C 15.5912 29.7455 20.2846
C 17.7786 29.8111 17.7339
C 19.9732 29.6255 20.1085
C 22.5337 29.4033 17.8882
C 27.4881 30.0393 17.6078
C 24.7253 29.6131 20.1458
C 29.4139 29.8612 20.3282
C 15.4807 15.3483 24.7828
C 17.9478 15.3472 22.5703
C 17.6182 15.4515 27.366
C 20.1958 15.5424 24.9197
C 22.7364 15.3216 22.48
C 27.2006 15.4033 22.4336
C 22.5295 15.5328 27.1902
C 24.9648 15.2839 24.9692
C 27.4383 15.0385 27.493
C 29.7059 15.5449 24.798
C 15.7387 17.8027 22.2365
C 15.0587 17.5457 27.5292
C 15.4963 19.74 24.889
C 20.1397 17.7744 22.4472
C 17.9987 20.2334 22.4755
C 17.8002 17.538 24.9241
C 20.0227 17.785 27.3604
C 17.5952 19.7743 27.4545
C 20.1975 19.8992 24.9044
C 25.0244 17.7848 22.5572
C 22.4666 20.1695 22.4494
C 27.1349 20.1134 22.5356
C 22.6152 17.7232 24.8177
C 27.2809 17.5744 25.102
C 25.1909 17.7537 27.5452
C 22.4935 19.9475 26.9158
C 24.9293 19.9356 24.803
C 27.4637 19.9072 27.4127
C 29.4492 17.8255 22.6281
C 29.9504 17.7316 27.472
C 29.4648 20.0863 24.8004
C 15.6482 22.2405 22.4137
C 15.4167 27.2153 22.5099
C 15.4866 22.299 26.8808
C 15.3352 24.9806 24.7324
C 15.1704 27.4385 27.2622
C 20.1872 22.5622 22.4403
C 17.7817 24.7406 22.3839
C 20.0891 27.0691 22.7932
C 17.9048 22.6099 24.8071
C 19.8938 22.3053 27.0437
C 17.7681 27.4225 24.9912
C 17.5462 25.1089 27.3118
C 20.0254 25.0068 25.1148
C 19.8678 27.3877 27.4902
C 24.788 22.5567 22.4386
C 22.6353 24.775 22.5389
C 27.1897 24.9598 22.6204
C 24.9705 27.0941 22.4391
C 22.491 22.5537 24.79
C 27.0989 22.398 24.8765
C 24.7761 22.3111 27.1423
C 22.525 27.1128 24.8436
C 22.5435 24.9391 27.1108
C 25.0376 24.8657 24.9849
C 27.1327 27.4722 24.8683
C 27.3902 25.0332 27.2424
C 25.0146 27.243 27.4316
C 29.4574 22.6038 22.6198
C 29.3988 27.3279 22.4002
C 29.6564 22.5451 26.8306
C 29.659 25.1548 24.9099
C 29.6962 27.7429 27.1951
C 15.2997 29.5152 24.7775
C 17.7371 29.5565 22.5955
C 17.381 29.9646 27.7212
C 20.2512 29.6977 25.1181
C 22.3885 29.2184 22.3822
C 27.0106 29.6574 22.4702
C 22.641 29.6167 27.4037
C 24.7209 29.795 24.8437
C 27.146 29.904 27.5512
C 29.1284 30.0616 24.7933
C 14.9343 15.5844 30.2994
C 20.2372 15.247 29.4557
C 24.6401 15.3646 29.6978
C 30.1666 15.0439 29.627
C 15.2774 20.524 29.8256
C 17.4126 17.9049 30.158
C 20.0118 20.0733 29.6171
C 22.537 17.9854 29.6148
C 27.5379 17.5593 29.7938
C 24.9637 20.2874 29.6593
C 29.9521 20.5528 29.347
C 15.1724 24.4026 29.4527
C 17.6046 22.5505 29.3301
C 17.3076 27.4179 29.8129
C 20.0923 24.6954 29.7168
C 22.2431 22.2857 29.249
C 27.48 22.5297 29.4331
C 22.6895 27.0417 29.619
C 24.7341 24.5894 29.6082
C 27.6091 27.2731 29.6783
C 29.9352 24.6053 29.1844
C 14.5518 31.1675 31.4196
C 20.2516 29.7674 29.5887
C 24.9212 29.3649 30.053
C 29.6862 30.7941 30.0668
172
TIMESTEP: 400	Temperature (K): 145.54674	Potential Energy: -43.802721
C 15.4952 15.974 16.067
C 20.2869 15.7246 15.2377
C 24.8696 15.5403 15.2784
C 28.896 15.3834 15.8546
C 15.6069 20.2612 15.6703
C 18.0698 17.9987 15.7316
C 20.1603 20.4363 15.4327
C 22.4872 18.057 14.9268
C 27.0173 17.8773 15.8296
C 24.956 20.3515 15.6881
C 29.6142 20.0501 15.5593
C 15.4829 24.9515 15.4773
C 17.7306 22.6511 15.2919
C 18.1246 27.0715 15.4781
C 20.2563 24.6398 15.3394
C 22.5599 22.5987 15.1994
C 27.4054 22.5056 15.2376
C 22.567 27.1168 15.0515
C 24.8387 24.5008 15.578
C 26.8155 27.0434 15.5388
C 29.6389 25.0163 15.6531
C 15.6558 29.0924 16.0212
C 20.0827 29.3453 15.0118
C 24.8129 29.5404 15.3009
C 29.2726 29.2191 15.7809
C 15.6541 15.406 19.9463
C 18.0962 15.4321 17.8639
C 20.4075 15.456 20.1993
C 22.4659 15.2286 17.5882
C 26.6112 15.5196 18.0673
C 24.489 15.4636 20.2833
C 29.2743 15.2725 19.9459
C 15.7696 18.1904 18.2077
C 15.4077 20.435 20.1198
C 20.3656 17.9078 17.8207
C 17.8595 20.4104 17.8381
C 17.9819 17.9649 20.2796
C 20.1752 20.1388 20.2907
C 24.4778 17.8132 17.8208
C 22.5401 20.2838 17.9006
C 27.2813 20.3656 18.0832
C 22.4025 17.8075 20.3286
C 27.1127 17.8408 20.2422
C 24.8522 20.1585 20.1884
C 29.4754 17.8734 18.0463
C 29.7334 20.1597 20.3241
C 15.4409 22.6306 17.8545
C 15.6086 26.8654 18.0956
C 15.2838 24.7802 20.7154
C 20.1457 22.5139 17.8884
C 17.9243 24.8304 17.862
C 20.4849 26.9872 17.7468
C 17.7817 22.3915 20.2357
C 18.1085 27.0971 20.2553
C 20.3203 24.8207 20.2303
C 24.9961 22.4382 18.136
C 22.5556 24.7038 17.8194
C 27.2105 24.775 17.9919
C 24.4761 27.0868 17.7041
C 22.478 22.4925 20.055
C 27.3967 22.5689 20.2692
C 22.3125 27.0303 20.238
C 24.8308 24.8437 20.0811
C 27.0726 27.2585 20.3541
C 29.5651 22.5854 18.0174
C 29.4981 26.9107 18.2303
C 29.8063 24.8811 20.5073
C 15.9209 29.4086 20.02
C 18.3952 29.351 17.8689
C 20.3966 29.6737 20.1375
C 22.3234 29.5679 17.6465
C 26.6893 29.3882 18.0376
C 24.4642 29.5875 20.1527
C 29.4392 29.6259 20.025
C 15.3875 15.6123 24.943
C 17.8408 15.6478 22.4987
C 18.0486 15.5965 26.9645
C 20.2883 15.5237 24.9037
C 22.243 15.1798 22.5474
C 27.1564 15.4242 22.3903
C 22.4909 15.3565 27.3067
C 24.7287 15.4803 24.6833
C 27.064 15.5551 27.0233
C 29.2239 15.024 24.9085
C 15.1619 17.8386 22.213
C 15.6403 18.0638 27.0141
C 15.1925 20.1268 24.6121
C 20.2867 17.7191 22.5884
C 17.8174 20.151 22.3961
C 17.8431 18.0287 24.7119
C 20.2485 17.999 27.1956
C 17.7975 20.3882 27.2528
C 20.1057 20.1293 24.8702
C 24.6708 17.9175 22.4372
C 22.5992 20.2889 22.4567
C 27.3229 20.0354 22.4719
C 22.5411 17.8291 24.9894
C 27.0143 17.766 24.5873
C 24.8414 18.0312 27.1078
C 22.683 20.1619 27.0054
C 24.9624 20.3268 24.7159
C 27.1794 20.2103 26.9418
C 29.6693 17.5899 22.8006
C 29.5072 17.9816 26.5538
C 29.7949 20.3639 24.6658
C 15.0293 22.2817 22.397
C 15.5732 27.3768 22.6583
C 15.2191 22.5205 26.9072
C 15.4632 24.7112 24.3923
C 15.5549 26.8503 26.6314
C 20.3034 22.3329 22.512
C 17.9873 24.7284 22.5141
C 20.2706 27.1091 22.5726
C 17.79 22.3957 24.7065
C 20.2028 22.3954 27.1497
C 18.0889 26.9486 24.7362
C 17.6237 24.4784 27.032
C 20.2727 24.6679 24.9557
C 20.4369 26.7543 27.2682
C 24.9218 22.4369 22.3555
C 22.5887 24.7029 22.4735
C 27.141 24.9659 22.5322
C 24.6475 27.1394 22.3607
C 22.699 22.5127 24.9146
C 27.37 22.4263 24.74
C 24.9958 22.5008 27.2322
C 22.7073 26.847 24.9373
C 22.616 24.5451 27.344
C 25.0231 24.5698 24.8028
C 27.091 27.1709 24.5306
C 27.157 24.6743 27.1374
C 24.6535 26.6675 27.4181
C 29.7857 22.4468 22.3851
C 29.6109 27.2373 22.5563
C 29.7268 22.5322 27.2488
C 29.5729 24.7379 24.6873
C 29.1937 27.3278 27.036
C 15.7494 29.7975 24.8318
C 18.1353 29.6792 22.3539
C 17.7816 29.2572 26.9658
C 20.5574 29.5662 24.664
C 22.3464 30.0419 22.3226
C 26.9581 29.7562 22.3363
C 22.5303 29.3474 27.1972
C 24.3972 29.6755 24.5584
C 26.4775 29.354 26.7593
C 29.1568 29.7193 24.9271
C 16.0595 15.4241 29.1911
C 20.052 15.6327 29.6662
C 25.0149 15.6055 29.517
C 29.3977 15.9495 29.2505
C 15.3313 19.9884 29.3812
C 17.9053 18.1819 29.3763
C 20.2779 20.305 29.528
C 22.7121 17.9691 29.5117
C 27.1016 18.0575 29.3539
C 24.8232 20.4561 29.559
C 29.559 20.0493 29.2382
C 15.4877 24.8624 29.2925
C 17.4479 22.3907 29.7278
C 17.8196 26.8416 29.1453
C 20.2055 24.3953 29.692
C 22.5556 22.4797 29.9911
C 27.5002 22.4188 29.6112
C 22.372 26.9194 29.7202
C 24.9869 24.4721 29.8261
C 27.0726 27.1187 29.4924
C 29.566 24.9249 29.3586
C 14.8011 31.5596 31.8019
C 19.8996 29.179 29.2542
C 24.7691 29.2714 29.7116
C 28.4601 29.8419 29.2051
172
TIMESTEP: 500	Temperature (K): 110.21909	Potential Energy: -42.959174
C 15.2905 14.8332 15.004
C 20.2115 15.3918 15.1163
C 24.841 15.5171 15.3456
C 29.9348 15.138 15.456
C 15.3741 19.8852 15.4904
C 17.3215 17.2788 15.1824
C 20.1889 20.0232 15.4334
C 22.4855 17.6456 15.6083
C 27.6881 17.4515 15.1683
C 24.889 20.1658 15.337
C 29.9681 20.2197 15.7343
C 14.8024 24.8159 15.4121
C 17.6853 22.3765 15.4458
C 17.5627 27.0325 15.0098
C 20.1312 24.7977 15.3222
C 22.5475 22.5356 15.1135
C 27.2963 22.642 15.566
C 22.4849 27.3315 15.2751
C 25.1312 24.9271 15.0253
C 27.5005 27.4931 15.1628
C 29.7244 25.0143 15.4069
C 14.4294 29.1577 14.6172
C 20.1466 29.4715 14.9406
C 24.9754 29.541 15.0647
C 30.1728 29.8484 15.026
C 15.6184 15.026 20.1279
C 17.9489 14.9559 17.4384
C 20.2886 15.352 20.0438
C 22.3832 15.4164 17.7739
C 27.5744 15.2129 17.5044
C 24.914 15.3283 19.857
C 29.5435 15.0475 20.4324
C 14.937 17.4436 17.771
C 15.5266 20.0214 20.0975
C 19.8823 17.692 17.6673
C 17.7113 20.0471 17.6186
C 17.6162 17.3308 19.8562
C 20.1177 19.8434 20.0073
C 24.9279 17.6175 17.6283
C 22.5981 20.0811 17.7495
C 27.3046 20.1289 17.5919
C 22.6824 17.7695 19.9945
C 27.2694 17.5159 20.029
C 24.9642 20.247 20.11
C 29.5643 17.5454 17.7961
C 29.3615 20.1242 19.9664
C 15.2193 22.244 17.6377
C 15.2839 27.2067 17.7193
C 15.5253 24.8479 20.006
C 20.2624 22.5752 17.7007
C 17.7157 24.834 17.6443
C 20.0276 27.2726 17.3739
C 17.8957 22.4633 19.9935
C 17.7093 27.3389 19.9214
C 20.0593 24.819 20.0185
C 24.742 22.6278 17.6242
C 22.694 25.0229 17.4983
C 27.4591 25.0279 17.7652
C 25.2117 27.3312 17.4476
C 22.5009 22.756 19.8563
C 27.2782 22.7397 20.0546
C 22.7413 27.5456 19.8856
C 25.1066 24.9563 20.0556
C 27.3773 27.4406 20.0323
C 29.9323 22.6402 17.9589
C 30.1869 27.5369 17.7067
C 29.4343 25.0391 20.3098
C 15.7066 29.9801 20.2191
C 17.2914 29.6028 17.0804
C 20.0484 29.6471 19.8161
C 22.6469 29.6084 17.5644
C 27.4061 29.7727 17.4116
C 25.0431 29.7417 19.8008
C 29.2038 30.2008 20.0619
C 15.1138 15.3584 24.4687
C 17.9813 15.2732 22.3885
C 17.5923 15.2105 27.4797
C 20.0791 15.3265 24.8844
C 22.6834 15.741 22.8197
C 26.7011 14.9495 22.4063
C 22.4495 15.5158 27.3015
C 24.8744 15.3603 25.0687
C 27.2972 15.3399 27.4377
C 29.5056 15.0086 24.2058
C 15.5928 17.5641 22.274
C 15.1011 17.2634 27.3934
C 15.1915 19.854 24.9236
C 20.1884 17.8188 22.609
C 17.8074 20.0644 22.4075
C 17.5641 17.6098 24.7845
C 19.999 17.7035 27.3517
C 17.4797 19.8597 27.319
C 19.844 20.1568 24.9581
C 24.9597 17.8414 22.4958
C 22.562 20.2927 22.4567
C 27.2364 20.1131 22.4644
C 22.4005 17.9478 25.0563
C 27.1881 17.4019 24.8494
C 24.8659 17.8035 27.4777
C 22.4329 20.1636 27.2816
C 25.0214 20.2093 24.9646
C 27.5805 19.6297 27.1855
C 29.3961 17.6444 22.2421
C 30.0038 17.0672 26.9895
C 29.5426 19.6766 24.6522
C 15.5975 22.5682 22.6203
C 15.1737 27.3863 22.2917
C 15.1881 22.4054 26.9146
C 15.0559 25.0261 24.9781
C 15.1153 28.0598 27.6415
C 19.9917 22.6168 22.7157
C 17.8351 24.9416 22.633
C 20.1852 27.1064 22.3531
C 17.7912 22.4637 25.1725
C 20.0992 22.6718 27.3421
C 17.6744 27.6266 25.1607
C 17.3901 25.1865 27.5286
C 19.968 25.0595 25.0736
C 19.8501 27.2967 27.6469
C 25.0575 22.6505 22.3903
C 22.5594 24.8218 22.4545
C 27.0902 25.2389 22.6035
C 24.6484 27.4303 22.4068
C 22.4486 22.6186 25.0297
C 27.4133 22.455 24.9863
C 24.8748 22.4552 27.3081
C 22.4606 27.3293 24.8106
C 22.5055 25.0792 27.1277
C 24.9977 24.831 24.9223
C 27.3359 27.5138 25.0809
C 27.4666 25.0128 27.2988
C 25.0413 27.2307 27.5034
C 29.3974 22.584 22.4208
C 29.3775 27.6862 22.471
C 29.9773 22.6177 26.9295
C 29.6601 25.2741 24.9823
C 29.659 27.6923 27.6608
C 15.5279 29.7996 24.4624
C 18.1837 29.787 22.408
C 17.8162 29.8149 27.7787
C 20.1341 29.6297 25.0912
C 22.3344 29.5239 22.6328
C 26.9843 29.7568 22.6036
C 22.4824 29.3169 27.635
C 24.9406 29.6075 25.146
C 27.3753 29.8292 27.6158
C 29.2914 30.0707 25.0003
C 14.8671 15.3062 30.439
C 20.2065 15.599 29.7721
C 24.7306 15.6076 29.8069
C 29.9238 15.2727 29.881
C 15.2021 20.0045 29.4639
C 17.2481 17.51 29.7199
C 19.9543 20.138 29.5942
C 22.3812 17.9514 29.8805
C 27.3433 17.619 29.837
C 25.0617 20.1876 29.7896
C 30.1858 19.2784 29.3217
C 14.9106 24.7357 29.3397
C 17.3644 22.5097 29.2477
C 17.2765 27.2451 30.0376
C 20.1059 24.8509 29.563
C 22.3144 22.5843 29.7002
C 27.7016 22.0175 29.3462
C 22.7786 26.8493 29.7502
C 25.1309 24.7722 29.5723
C 27.5041 27.3029 29.9973
C 29.7751 24.514 29.5963
C 15.2523 31.722 31.9405
C 20.749 29.3357 30.5187
C 24.9924 29.2756 29.9541
C 29.6196 29.8669 30.0097
172
TIMESTEP: 600	Temperature (K): 159.00233	Potential Energy: -43.935841
C 15.6757 14.4251 15.6345
C 20.2728 15.2975 15.2367
C 25.0863 15.4978 15.1729
C 30.4789 15.3999 15.4982
C 15.3233 20.0963 15.7228
C 18.1485 17.9999 15.3667
C 20.3501 20.2734 15.1582
C 22.6834 17.9246 15.1447
C 27.1557 18.0969 15.8344
C 24.9855 20.4713 15.2649
C 29.9068 19.912 15.9319
C 15.1809 24.5872 15.4291
C 17.8141 22.4357 15.539
C 17.6854 27.0582 15.5819
C 19.9725 24.7271 15.2971
C 22.4704 22.5593 15.4937
C 27.3977 22.6293 15.4521
C 22.3161 26.9986 15.5133
C 24.836 24.8941 15.6017
C 27.3542 27.0653 15.2652
C 29.9484 24.7958 15.7032
C 14.8592 27.931 14.454
C 20.0427 29.1748 15.1903
C 24.7277 29.0671 15.0762
C 29.9943 29.4989 15.1024
C 15.2718 15.0795 20.5294
C 18.1837 15.2512 17.6884
C 20.2974 15.4342 19.9768
C 22.4409 15.4667 17.5175
C 27.0906 15.675 17.8125
C 24.781 15.5766 19.9148
C 29.1306 15.3261 20.3405
C 15.757 17.4396 18.0399
C 15.3348 19.9109 20.2647
C 20.1855 18.1143 17.6576
C 17.7964 20.135 17.8841
C 18.0402 17.7645 20.142
C 20.0824 20.2903 20.1068
C 24.7582 17.93 17.781
C 22.6422 20.2556 17.6463
C 27.1444 20.2149 18.0925
C 22.5324 17.8172 19.9858
C 26.9415 17.9787 20.1443
C 24.7189 20.2418 20.1853
C 29.5653 17.7692 18.2358
C 29.6995 20.1725 20.2542
C 15.6227 22.4017 17.9252
C 15.4283 27.1789 17.8487
C 15.3423 24.9196 20.3555
C 20.1068 22.4538 17.6091
C 17.7997 24.8395 17.9598
C 20.1625 26.8899 17.8256
C 17.745 22.5207 20.2895
C 18.1069 27.1078 20.2225
C 20.2173 24.8321 20.2667
C 24.9579 22.4345 17.9655
C 22.5581 24.7726 17.9589
C 27.0723 24.9743 17.9689
C 24.6767 27.1781 18.1013
C 22.4598 22.4667 20.1631
C 27.1327 22.4631 20.2685
C 22.5325 27.1504 20.1301
C 24.8211 24.8506 20.2574
C 27.0495 27.2594 20.3746
C 29.3429 22.5058 18.0016
C 29.3375 27.4998 17.8366
C 29.4787 24.9519 20.508
C 15.2344 29.528 20.1186
C 17.9693 29.4555 18.051
C 20.2338 29.712 20.2847
C 22.3141 29.4996 17.512
C 27.003 29.7161 17.7308
C 24.6381 29.9671 20.1054
C 29.2266 29.7323 20.1218
C 15.6954 15.283 24.6778
C 18.0826 15.1826 22.2323
C 18.2709 15.4396 27.0443
C 20.2882 15.1554 24.4339
C 22.5838 15.1115 22.3539
C 26.7975 15.713 22.5453
C 22.2256 15.3446 27.3677
C 24.5176 15.2895 24.6563
C 27.0407 15.5883 26.8388
C 29.3574 15.1472 24.4117
C 15.7157 17.5974 22.4967
C 15.7598 17.7563 26.9218
C 15.4839 20.2166 24.5799
C 20.3708 17.7203 22.3692
C 17.8244 20.1295 22.315
C 18.0679 17.921 24.6483
C 20.0275 18.1982 27.1148
C 17.8117 20.4123 26.9824
C 20.1213 20.2408 24.7753
C 24.4402 17.7264 22.4142
C 22.4466 20.2062 22.4903
C 27.0492 20.1215 22.4633
C 22.303 17.9242 24.9665
C 26.8783 17.9026 24.7151
C 24.5599 17.6683 27.0682
C 22.3926 20.3205 27.1751
C 24.6107 20.1101 24.7985
C 27.2925 20.2234 26.9005
C 29.4092 17.8232 22.444
C 29.3949 17.63 26.9558
C 29.6543 19.9715 24.6697
C 15.1241 22.4333 22.391
C 15.6173 27.4575 22.5794
C 15.4187 22.5935 26.8089
C 15.5311 25.0318 24.6823
C 16.0512 27.5227 27.0657
C 20.246 22.4249 22.5621
C 17.8971 24.9389 22.6145
C 20.3551 27.3577 22.5658
C 17.7647 22.4547 24.5027
C 20.0929 22.5276 27.1517
C 18.1174 27.154 24.7894
C 17.9392 24.9175 27.1767
C 20.0519 24.9011 24.8603
C 20.1484 27.0032 27.3443
C 24.6746 22.5051 22.5815
C 22.3818 24.8209 22.4845
C 27.1354 25.0242 22.5838
C 24.7561 27.0951 22.3962
C 22.3923 22.4789 24.7739
C 27.3071 22.4807 24.6676
C 24.9658 22.4636 27.0769
C 22.64 27.1106 25.0069
C 22.5795 24.6765 27.2501
C 24.7446 24.7998 24.8397
C 26.9938 27.172 24.7011
C 27.2636 24.7523 27.0743
C 24.7383 26.9956 27.3997
C 29.735 22.533 22.3307
C 29.4742 27.4472 22.5149
C 29.654 22.8559 26.8448
C 29.7371 24.776 24.4478
C 29.6496 26.9147 26.8996
C 15.4462 29.7059 24.7844
C 17.899 29.7954 22.5045
C 18.3316 29.7721 27.1359
C 20.5623 29.8283 25.019
C 22.5895 29.5047 22.5586
C 27.0529 29.6846 22.6286
C 22.6446 29.7362 27.6929
C 24.8093 29.4307 24.9517
C 26.9306 29.2443 27.3155
C 29.2219 29.7527 25.1132
C 14.5901 16.4528 30.4194
C 19.8737 15.6423 29.7049
C 24.8237 15.7456 29.6806
C 29.6688 15.8594 29.66
C 14.9872 20.2321 29.2191
C 17.5964 18.3087 29.3439
C 20.0638 20.4048 29.4905
C 22.2663 17.9144 29.6234
C 27.2846 17.9941 29.2826
C 24.8809 20.098 29.3917
C 29.8329 20.3269 28.9523
C 15.0876 25.1757 29.1778
C 17.3359 22.3968 29.585
C 17.5482 26.8108 29.7873
C 20.2581 24.6247 29.5041
C 22.3635 22.4084 29.8968
C 27.5216 22.4955 29.5938
C 22.5934 26.872 29.9871
C 24.8576 24.534 29.479
C 27.3648 26.8677 29.5049
C 30.0542 24.8303 29.36
C 16.0396 31.4366 31.6468
C 19.6899 29.2026 30.3269
C 24.9395 29.2269 30.1152
C 29.7056 29.0658 30.1415
172
TIMESTEP: 700	Temperature (K): 158.61978	Potential Energy: -43.802485