LAMMPS (17 Nov 2015)
WARNING: OMP_NUM_THREADS environment is not set. (../comm.cpp:90)
  using 1 OpenMP thread(s) per MPI task
# LJ

print           "Seed: ${seed}"
Seed: 1112

units		metal
atom_style	atomic
boundary 	p p p


#read_restart	pol.restart_300_1

lattice 	fcc 5
Lattice spacing in x,y,z = 5 5 5
region          box block 0 10 0 10 0 10 units lattice
create_box	1 box
Created orthogonal box = (0 0 0) to (50 50 50)
  1 by 1 by 1 MPI processor grid

region 		cryst block 3 6 3 6 3 6 units lattice
create_atoms 	1 region cryst
Created 172 atoms

mass		1 12.011

pair_style 	lj/cut 9
pair_coeff 	1 1 0.05 3.0 	#solid at 0.05/liquid at 0.25 at 300 K
pair_modify 	shift yes

velocity 	all create 50.0 ${seed} mom yes rot yes
velocity 	all create 50.0 1112 mom yes rot yes

thermo		100
thermo_style 	custom step temp pe
timestep	0.002
dump		1 all custom 100 first.lammpstrj id type x y z element vx vy vz
dump_modify	1 element C
write_dump	all xyz pos.xyz modify element H
WARNING: Calling write_dump before a full system init. (../write_dump.cpp:81)
restart 	50000 restart1 restart2

fix 		1 all nvt temp 50.0 50.0 1.0
run		50000
Neighbor list info ...
  1 neighbor list requests
  update every 1 steps, delay 10 steps, check yes
  max neighbors/atom: 2000, page size: 100000
  master list distance cutoff = 11
  ghost atom cutoff = 11
  binsize = 5.5 -> bins = 10 10 10
Memory usage per processor = 3.75797 Mbytes
Step Temp PotEng 
       0           50   -41.803497 
     100    160.31099   -44.451061 
     200    122.68728   -44.046317 
     300    124.98788   -44.302674 
     400    119.46433   -44.590506 
     500    89.665001   -44.289537 
     600    117.96607   -45.203419 
     700     89.88003   -44.914551 
     800    84.696233    -45.04497 
     900     96.58027   -45.578363 
    1000    66.459421   -45.155593 
    1100    83.081106   -45.729625 
    1200    68.185844   -45.603384 
    1300    70.974997   -45.831191 
    1400    59.079511   -45.738121 
    1500    59.012579   -45.878644 
    1600    59.660124   -46.027765 
    1700    53.607212   -46.015827 
    1800     53.96447   -46.126842 
    1900    49.450635   -46.125325 
    2000    52.116529    -46.26464 
    2100    49.066169     -46.2724 
    2200    46.151807   -46.271631 
    2300     49.30611   -46.397555 
    2400    47.271856   -46.400403 
    2500    45.015652   -46.389125 
    2600    43.304937   -46.382101 
    2700    44.351696   -46.425948 
    2800    42.108606   -46.387994 
    2900    42.181941   -46.391594 
    3000    46.362831   -46.475787 
    3100    45.579477   -46.441047 
    3200    44.985525   -46.401151 
    3300     46.81705   -46.406818 
    3400    46.469238   -46.359173 
    3500    44.918943   -46.278582 
    3600    47.074403    -46.27748 
    3700     53.19788   -46.362354 
    3800    50.716242   -46.260445 
    3900    48.229144   -46.161089 
    4000    50.578378   -46.171781 
    4100    51.613226   -46.160249 
    4200    54.319548   -46.190162 
    4300    51.166414   -46.100299 
    4400     54.09189   -46.152891 
    4500    54.001488   -46.149581 
    4600    53.814673   -46.153034 
    4700    54.045357   -46.174354 
    4800    55.543341   -46.230178 
    4900    53.797034    -46.22031 
    5000    53.524417   -46.248491 
    5100    54.707131   -46.309718 
    5200    49.538557   -46.234294 
    5300    47.995111    -46.23463 
    5400    54.146227   -46.403474 
    5500    48.838887   -46.315832 
    5600    52.406929    -46.41895 
    5700    48.376074   -46.352444 
    5800    45.882847   -46.313344 
    5900    50.044639   -46.415111 
    6000    47.377303     -46.3622 
    6100    48.017036   -46.377046 
    6200    46.213324   -46.332812 
    6300    50.039413   -46.408954 
    6400    47.973649   -46.349382 
    6500    44.839602   -46.262047 
    6600    49.478482   -46.342656 
    6700     49.55793     -46.3203 
    6800    53.784903   -46.387483 
    6900    49.345784   -46.262404 
    7000    48.856725   -46.225373 
    7100    50.706954   -46.242031 
    7200    50.445458   -46.213814 
    7300    49.931652   -46.181711 
    7400    53.348185   -46.241468 
    7500     53.03619   -46.223702 
    7600    49.229589   -46.135009 
    7700    52.382541    -46.20558 
    7800    52.304219   -46.209356 
    7900    50.999321   -46.192119 
    8000    52.063197   -46.232358 
    8100     45.81601   -46.114885 
    8200    53.565651   -46.309838 
    8300    52.149697   -46.304561 
    8400    48.201721   -46.243072 
    8500    49.712941   -46.300488 
    8600    48.850552   -46.304763 
    8700    39.850456   -46.127056 
    8800     47.18657   -46.308597 
    8900    47.860977    -46.34021 
    9000    48.767123   -46.373298 
    9100    43.035188   -46.255624 
    9200    46.437693   -46.335981 
    9300    46.109365   -46.329506 
    9400    49.547225   -46.402194 
    9500    46.870514   -46.335426 
    9600    48.591257   -46.361354 
    9700    49.707271     -46.3706 
    9800    51.683971   -46.395517 
    9900    47.817555   -46.289875 
   10000     47.48836   -46.259831 
   10100    52.006585   -46.335791 
   10200    49.002119   -46.246855 
   10300    50.434943   -46.256326 
   10400    50.236161   -46.230224 
   10500    47.609708   -46.152224 
   10600    53.630506   -46.267018 
   10700    48.074476   -46.129046 
   10800    54.466117   -46.257618 
   10900    50.427128   -46.160859 
   11000    52.757064   -46.209984 
   11100    57.031525   -46.307474 
   11200     48.84754   -46.135516 
   11300    55.416724   -46.293122 
   11400    51.536722   -46.224273 
   11500    49.208528   -46.192647 
   11600    49.955623   -46.231265 
   11700     49.95514   -46.255795 
   11800    51.026517   -46.304673 
   11900    53.886037   -46.392902 
   12000    51.257891   -46.356762 
   12100    48.937714   -46.326817 
   12200    44.609346   -46.249654 
   12300    50.010189   -46.383004 
   12400    47.740712   -46.345063 
   12500    46.701892   -46.329417 
   12600    44.105112   -46.276524 
   12700    48.513216   -46.374425 
   12800    47.073781   -46.338929 
   12900    48.748858   -46.367931 
   13000    49.232547   -46.365918 
   13100    48.483519   -46.332489 
   13200    49.938437   -46.345305 
   13300    51.548167   -46.359072 
   13400    49.490956   -46.291672 
   13500    49.119718   -46.259217 
   13600    55.984736    -46.38717 
   13700    49.556533   -46.224553 
   13800    49.195712   -46.197164 
   13900    49.740454   -46.193567 
   14000    54.807831   -46.294035 
   14100    54.153569   -46.272072 
   14200    48.302813   -46.139197 
   14300    53.051788   -46.243372 
   14400    55.117971   -46.293741 
   14500    44.767391   -46.075432 
   14600    54.974449   -46.314867 
   14700    53.492078   -46.300201 
   14800    48.993356   -46.222187 
   14900    54.845469   -46.373756 
   15000    50.807926   -46.307779 
   15100    47.833273   -46.264297 
   15200    49.677291   -46.326008 
   15300    47.644655   -46.300315 
   15400     48.13049   -46.327978 
   15500    47.799382   -46.334119 
   15600    47.533962    -46.33722 
   15700    49.898232   -46.393324 
   15800    48.488626   -46.361904 
   15900    48.622815   -46.358778 
   16000    50.859594   -46.396065 
   16100    49.707439   -46.351127 
   16200    47.923367   -46.282559 
   16300    52.332276    -46.33985 
   16400     52.72373   -46.302668 
   16500    53.524338   -46.279229 
   16600    51.858521   -46.211934 
   16700    49.826801    -46.14591 
   16800    52.670233    -46.19667 
   16900    51.719545   -46.171126 
   17000    51.521074   -46.169515 
   17100    54.173374   -46.235481 
   17200    51.909142   -46.195196 
   17300    53.075755   -46.234688 
   17400    52.052943   -46.228771 
   17500    51.970964    -46.24284 
   17600    50.254608   -46.222522 
   17700    52.769705   -46.297391 
   17800      51.3875     -46.2862 
   17900     48.21694   -46.232368 
   18000     53.17306    -46.35767 
   18100    52.082778   -46.348781 
   18200    47.082109   -46.248777 
   18300    46.783123   -46.249408 
   18400    49.372884   -46.310809 
   18500    47.487294   -46.270818 
   18600    50.552602   -46.337689 
   18700    48.373565   -46.287183 
   18800    53.120143   -46.387868 
   18900    48.407016   -46.279032 
   19000    49.816231   -46.304213 
   19100    49.025822   -46.281568 
   19200     51.45523   -46.330473 
   19300    50.391623   -46.302467 
   19400    50.188245   -46.293691 
   19500    47.728234   -46.237275 
   19600    54.715987   -46.389347 
   19700    47.251028   -46.224085 
   19800    50.444651   -46.292462 
   19900    48.570429   -46.247878 
   20000    51.204029   -46.302648 
   20100    52.313616   -46.323671 
   20200    44.313223   -46.145321 
   20300    50.013884   -46.268582 
   20400    50.626133   -46.279302 
   20500    53.294647   -46.335022 
   20600    45.859323   -46.166998 
   20700    47.990654   -46.209938 
   20800    51.158206   -46.273898 
   20900    53.257051   -46.313687 
   21000    53.872418   -46.319558 
   21100    49.583402   -46.215323 
   21200    50.373255   -46.223611 
   21300    52.253084   -46.254702 
   21400    51.295742   -46.225703 
   21500    48.501266   -46.157396 
   21600    50.530929   -46.197356 
   21700    54.762579   -46.288014 
   21800    52.932334   -46.248839 
   21900    50.331151   -46.197545 
   22000    55.229527   -46.316946 
   22100    49.204505   -46.200648 
   22200    51.426904   -46.270816 
   22300    49.102462   -46.244499 
   22400    51.292369   -46.318868 
   22500    52.104259   -46.362253 
   22600    44.628122   -46.220672 
   22700    49.153568   -46.342097 
   22800    46.359776     -46.2979 
   22900    49.543132   -46.380189 
   23000    46.229168   -46.314222 
   23100    42.992123   -46.244641 
   23200    47.623018   -46.344652 
   23300     42.67887   -46.227734 
   23400    43.520308   -46.231136 
   23500    46.323027   -46.267007 
   23600    47.474582    -46.25453 
   23700    48.152077   -46.221037 
   23800    50.859569   -46.231501 
   23900    54.652104   -46.275422 
   24000    53.286712   -46.220003 
   24100    50.361104   -46.143172 
   24200    54.998162    -46.24047 
   24300    50.913278   -46.150025 
   24400    54.243354   -46.230056 
   24500     50.63598   -46.161354 
   24600     52.95036   -46.227948 
   24700    49.662881   -46.174988 
   24800     55.92496   -46.334019 
   24900    53.752719   -46.311153 
   25000    47.586073    -46.20085 
   25100    49.146588   -46.258763 
   25200    52.275498   -46.350388 
   25300    47.719442    -46.26873 
   25400    49.565763   -46.325451 
   25500    48.697805   -46.316807 
   25600      47.1073   -46.289059 
   25700    44.590418   -46.237299 
   25800    46.910034   -46.289314 
   25900    48.395068    -46.32088 
   26000    43.948963   -46.218344 
   26100    46.132524    -46.25925 
   26200    45.944549   -46.243392 
   26300    50.487676    -46.32832 
   26400    48.818919   -46.271376 
   26500    50.135578   -46.269814 
   26600    50.758487     -46.2384 
   26700    51.623581   -46.199727 
   26800    53.861167   -46.194231 
   26900    52.899298   -46.134679 
   27000    54.430157   -46.149036 
   27100    56.411971    -46.18614 
   27200    59.267937    -46.25391 
   27300    59.402904   -46.269641 
   27400    51.008449   -46.102202 
   27500     55.12412   -46.216079 
   27600    55.627047   -46.255334 
   27700    55.451737   -46.280037 
   27800    47.144238   -46.126204 
   27900    51.730645   -46.252943 
   28000    51.372885    -46.26817 
   28100    52.241605   -46.306464 
   28200    49.693532   -46.265833 
   28300    50.731933   -46.301749 
   28400    47.801642   -46.247713 
   28500    49.964121   -46.304495 
   28600    46.384693   -46.231884 
   28700    50.605408   -46.328754 
   28800     48.70985   -46.287685 
   28900    48.845793   -46.290465 
   29000    49.094379    -46.29403 
   29100     47.92079   -46.264017 
   29200    45.418928    -46.20251 
   29300    50.007564   -46.292944 
   29400    52.047371    -46.32337 
   29500     50.59865   -46.271203 
   29600    49.659341   -46.220625 
   29700     51.17134   -46.218093 
   29800    50.809417   -46.171979 
   29900    54.331763   -46.216799 
   30000    56.187534   -46.232145 
   30100    55.012651    -46.19024 
   30200    51.868909   -46.113203 
   30300    58.324065   -46.258088 
   30400    55.615662   -46.210848 
   30500    50.886247   -46.126819 
   30600    54.620654   -46.238857 
   30700    54.688949   -46.275296 
   30800    50.097405   -46.213103 
   30900    52.116771   -46.292247 
   31000    50.677208   -46.286509 
   31100    47.769124   -46.240343 
   31200    47.858389   -46.254741 
   31300    49.769509   -46.305008 
   31400     48.40861   -46.280008 
   31500    47.011686   -46.252653 
   31600    45.657983   -46.224054 
   31700    53.861732   -46.404311 
   31800    49.842161   -46.313923 
   31900    48.604685   -46.284665 
   32000    51.844198   -46.352801 
   32100    51.685472   -46.345656 
   32200     49.78025   -46.298407 
   32300    46.868685   -46.226829 
   32400    53.186308   -46.355593 
   32500    48.094952   -46.228237 
   32600     52.76564   -46.312387 
   32700     52.85091   -46.290127 
   32800    55.715149    -46.32583 
   32900    53.661749   -46.248724 
   33000    53.635104   -46.218206 
   33100    52.132006   -46.157547 
   33200    59.640855    -46.29987 
   33300    54.928498   -46.181343 
   33400    53.209165   -46.135865 
   33500    50.992811   -46.087407 
   33600    51.174346   -46.100668 
   33700    53.456971   -46.169043 
   33800    52.102914   -46.171363 
   33900    50.786754   -46.185086 
   34000    53.308835   -46.291167 
   34100    51.767978   -46.303861 
   34200    51.721232   -46.335852 
   34300     53.17701   -46.389097 
   34400    50.069767   -46.332357 
   34500    49.796342   -46.332119 
   34600    45.455478   -46.238599 
   34700    47.797271   -46.288826 
   34800    46.780476   -46.261524 
   34900    41.870814   -46.146199 
   35000    53.680474   -46.397904 
   35100    47.386979   -46.249175 
   35200    49.195531   -46.276212 
   35300    50.480757   -46.290062 
   35400    49.845157    -46.26047 
   35500    50.912578   -46.266348 
   35600    49.450177   -46.216565 
   35700    50.900143   -46.229288 
   35800    50.625794   -46.203073 
   35900    51.190676   -46.194937 
   36000    49.602736   -46.140225 
   36100    50.403307   -46.138334 
   36200    52.504819   -46.166624 
   36300    52.592904   -46.151384 
   36400    57.186034    -46.23709 
   36500    50.814333   -46.085143 
   36600    50.576564   -46.072947 
   36700    53.095295   -46.128581 
   36800    52.455445   -46.123272 
   36900    56.204802    -46.22821 
   37000    52.531473   -46.183241 
   37100    53.739666   -46.254112 
   37200    50.031064   -46.217632 
   37300     49.83181   -46.250989 
   37400    51.769981   -46.324637 
   37500    48.423651   -46.273499 
   37600    52.516309   -46.380026 
   37700    47.903058   -46.291481 
   37800    49.962359   -46.346837 
   37900     50.17098   -46.357752 
   38000    50.646194   -46.370992 
   38100     49.18612   -46.338251 
   38200    48.281576   -46.315625 
   38300    48.408518   -46.313631 
   38400    48.315058    -46.30206 
   38500    50.984045   -46.347423 
   38600    50.094954   -46.310247 
   38700    51.432319   -46.318372 
   38800    50.403445   -46.269588 
   38900    51.542361   -46.264134 
   39000    51.547598   -46.231858 
   39100    51.433007   -46.199146 
   39200    51.149854   -46.165903 
   39300    55.062881   -46.227834 
   39400    55.202378   -46.211295 
   39500    54.413049   -46.183203 
   39600    59.677849    -46.29617 
   39700    53.480407   -46.164296 
   39800    55.364012   -46.216606 
   39900     52.03395    -46.16248 
   40000    51.935302   -46.187656 
   40100    49.005167   -46.157543 
   40200    51.213084   -46.243471 
   40300    53.801717   -46.334912 
   40400    47.898933   -46.231526 
   40500     49.17957   -46.275797 
   40600    48.912932   -46.278493 
   40700    48.107931   -46.263913 
   40800    50.013553   -46.307427 
   40900    49.201708   -46.289368 
   41000    50.456443   -46.315893 
   41100    49.601111   -46.292899 
   41200    52.638237   -46.357106 
   41300    48.513706   -46.263315 
   41400    52.891625   -46.356292 
   41500    50.737276   -46.303416 
   41600    48.680806   -46.251358 
   41700    48.946817   -46.249279 
   41800    50.129985   -46.268012 
   41900    50.584893    -46.27018 
   42000    55.568267   -46.371559 
   42100    51.054025   -46.263283 
   42200    50.136484   -46.232762 
   42300    51.255565   -46.246775 
   42400    50.161795   -46.213273 
   42500    52.539691   -46.255833 
   42600    49.694656   -46.187407 
   42700    49.355105   -46.175288 
   42800    48.850955   -46.162627 
   42900    51.898197   -46.232252 
   43000    53.971485   -46.282855 
   43100    49.712863   -46.198702 
   43200    51.277843   -46.247881 
   43300    51.115565    -46.26446 
   43400    47.546596   -46.210365 
   43500    51.213036   -46.318713 
   43600    48.193651   -46.280268 
   43700    49.924507   -46.348002 
   43800    45.825501   -46.280578 
   43900    45.222652    -46.28679 
   44000    47.534904   -46.351018 
   44100     43.15348   -46.263108 
   44200    47.361177   -46.358311 
   44300    46.239316   -46.330757 
   44400    48.543021   -46.373042 
   44500    47.179747   -46.328778 
   44600    47.385577   -46.311883 
   44700    47.300482   -46.282431 
   44800    47.787806   -46.253642 
   44900    47.626786   -46.205682 
   45000    52.831919   -46.281492 
   45100    50.797473   -46.208584 
   45200    50.481723    -46.18524 
   45300     54.56579   -46.267237 
   45400    49.784044   -46.159732 
   45500    51.694336   -46.203512 
   45600    57.753326   -46.341691 
   45700    49.810868   -46.173205 
   45800    49.488152   -46.174688 
   45900    51.358105   -46.230083 
   46000    52.007839   -46.261025 
   46100    53.691288   -46.316662 
   46200    49.945283    -46.25506 
   46300    51.517208   -46.312188 
   46400    52.732641   -46.362188 
   46500    49.123255   -46.302656 
   46600    49.934063    -46.33803 
   46700    49.877474   -46.351218 
   46800    48.095373   -46.322652 
   46900    51.048214    -46.39595 
   47000    49.592385   -46.369339 
   47100    45.117538   -46.273972 
   47200    50.151076   -46.384901 
   47300    50.030507   -46.378743 
   47400    46.857259   -46.299362 
   47500    45.263848    -46.24329 
   47600     46.50059   -46.233805 
   47700    49.895611   -46.256308 
   47800    52.001439    -46.24804 
   47900    49.042026   -46.140038 
   48000    55.545135   -46.253431 
   48100    53.204326   -46.183359 
   48200    56.166783   -46.240465 
   48300    55.732797   -46.230815 
   48400    55.022046    -46.22362 
   48500    51.403442   -46.159292 
   48600    50.885116   -46.167706 
   48700    49.753209   -46.167116 
   48800    50.724433   -46.215564 
   48900    51.819153   -46.269327 
   49000    49.836756    -46.25515 
   49100    51.788155   -46.325159 
   49200     49.76266   -46.302818 
   49300     50.87685   -46.343837 
   49400    50.175462   -46.340011 
   49500    43.742156   -46.205304 
   49600    44.796265   -46.232617 
   49700    46.689077   -46.276921 
   49800    48.914334   -46.324983 
   49900    49.017504   -46.323352 
   50000    49.889065   -46.335437 
Loop time of 12.4401 on 1 procs for 50000 steps with 172 atoms

Performance: 694.530 ns/day, 0.035 hours/ns, 4019.269 timesteps/s
82.5% CPU use with 1 MPI tasks x 1 OpenMP threads

MPI task timing breakdown:
Section |  min time  |  avg time  |  max time  |%varavg| %total
---------------------------------------------------------------
Pair    | 11.113     | 11.113     | 11.113     |   0.0 | 89.33
Neigh   | 0.090848   | 0.090848   | 0.090848   |   0.0 |  0.73
Comm    | 0.034347   | 0.034347   | 0.034347   |   0.0 |  0.28
Output  | 0.42678    | 0.42678    | 0.42678    |   0.0 |  3.43
Modify  | 0.64442    | 0.64442    | 0.64442    |   0.0 |  5.18
Other   |            | 0.1311     |            |       |  1.05

Nlocal:    172 ave 172 max 172 min
Histogram: 1 0 0 0 0 0 0 0 0 0
Nghost:    0 ave 0 max 0 min
Histogram: 1 0 0 0 0 0 0 0 0 0
Neighs:    7560 ave 7560 max 7560 min
Histogram: 1 0 0 0 0 0 0 0 0 0

Total # of neighbors = 7560
Ave neighs/atom = 43.9535
Neighbor list builds = 299
Dangerous builds = 0
Total wall time: 0:00:12
