LAMMPS (17 Nov 2015)
WARNING: OMP_NUM_THREADS environment is not set. (../comm.cpp:90)
  using 1 OpenMP thread(s) per MPI task
# LJ

print           "Seed: ${seed}"
Seed: 9246

units		metal
atom_style	atomic
boundary 	p p p


#read_restart	pol.restart_300_1

lattice 	fcc 5
Lattice spacing in x,y,z = 5 5 5
region          box block 0 10 0 10 0 10 units lattice
create_box	1 box
Created orthogonal box = (0 0 0) to (50 50 50)
  1 by 1 by 1 MPI processor grid

region 		cryst block 3 6 3 6 3 6 units lattice
create_atoms 	1 region cryst
Created 172 atoms

mass		1 12.011

pair_style 	lj/cut 9
pair_coeff 	1 1 0.05 3.0 	#solid at 0.05/liquid at 0.25 at 300 K
pair_modify 	shift yes

velocity 	all create 50.0 ${seed} mom yes rot yes
velocity 	all create 50.0 9246 mom yes rot yes

thermo		100
thermo_style 	custom step temp pe
timestep	0.002
dump		1 all custom 100 first.lammpstrj id type x y z element vx vy vz
dump_modify	1 element C
write_dump	all xyz pos.xyz modify element H
WARNING: Calling write_dump before a full system init. (../write_dump.cpp:81)
restart 	50000 restart1 restart2

fix 		1 all nvt temp 1000.0 1000.0 1.0
run		50000
Neighbor list info ...
  1 neighbor list requests
  update every 1 steps, delay 10 steps, check yes
  max neighbors/atom: 2000, page size: 100000
  master list distance cutoff = 11
  ghost atom cutoff = 11
  binsize = 5.5 -> bins = 10 10 10
Memory usage per processor = 3.75797 Mbytes
Step Temp PotEng 
       0           50   -41.803497 
     100    152.17111   -43.920937 
     200    143.90932   -43.427778 
     300    133.54691   -43.007516 
     400    168.96331    -43.48081 
     500    135.32525   -42.397106 
     600    184.35097   -43.141137 
     700    195.31303   -42.935126 
     800    172.40132   -42.008075 
     900    203.25074   -42.207626 
    1000    179.05592    -41.16806 
    1100     214.7968   -41.441378 
    1200    210.74707   -40.744229 
    1300    210.05277   -40.122066 
    1400    231.94539   -39.956069 
    1500    253.31491   -39.727878 
    1600    231.01808   -38.549333 
    1700    282.60969   -38.945359 
    1800    284.34482    -38.17493 
    1900    285.78904   -37.399237 
    2000    297.81042   -36.835227 
    2100    307.08693     -36.1511 
    2200    304.23036   -35.195341 
    2300    320.53784   -34.613806 
    2400    350.97326   -34.292634 
    2500    352.04611   -33.266987 
    2600    371.01241   -32.583864 
    2700    383.51402    -31.76241 
    2800    373.06422   -30.399975 
    2900    442.40747   -30.699952 
    3000    462.81505   -29.813168 
    3100    444.82037   -28.171504 
    3200     465.9411   -27.360106 
    3300    468.06588   -26.058169 
    3400    467.70829   -24.696723 
    3500    499.20707   -24.003339 
    3600    521.40107   -23.074171 
    3700    548.58346   -22.190595 
    3800    596.33306   -21.669734 
    3900    655.97573   -21.304375 
    4000     696.7054     -20.4396 
    4100    714.74476   -19.071014 
    4200     702.2955   -17.037172 
    4300    742.67889   -16.169703 
    4400    788.13399   -15.384382 
    4500    830.37326   -14.494383 
    4600    933.25171   -14.850554 
    4700    959.01425   -13.573463 
    4800    990.80818   -12.530049 
    4900    1042.0745   -12.016622 
    5000    1124.6505   -12.321113 
    5100    1174.2248    -12.14821 
    5200    1142.0214   -10.490126 
    5300     1086.089   -8.6228532 
    5400    1082.4937   -8.1214011 
    5500    1086.3667   -7.9468756 
    5600    1094.3021   -8.0225716 
    5700    1102.5352   -8.3092945 
    5800     1060.686   -7.6974451 
    5900    1027.5858   -7.3983877 
    6000    1004.8603   -7.3673078 
    6100    983.65213   -7.3648117 
    6200    944.38345    -6.918033 
    6300    900.27762   -6.2586175 
    6400    877.61007   -5.9013682 
    6500    880.44756   -5.9155765 
    6600    896.46605   -6.0364148 
    6700    927.25305   -6.3203297 
    6800    957.26889   -6.4615549 
    6900     981.0807   -6.3770545 
    7000    995.55927    -6.045211 
    7100    1028.3246   -6.1000473 
    7200    1064.3926   -6.2577374 
    7300    1062.5047   -5.6632432 
    7400    1096.4612   -5.9715514 
    7500    1078.0969   -5.2848023 
    7600    1081.0513   -5.2204155 
    7700    1047.7353   -4.4991254 
    7800    1029.2309   -4.1986175 
    7900     1002.387   -3.7603605 
    8000    1008.6654   -4.0745225 
    8100    972.84991   -3.4551541 
    8200      978.789   -3.7327018 
    8300    958.29658   -3.3935538 
    8400    946.93606   -3.1857022 
    8500     962.5258   -3.4895337 
    8600    939.35259   -2.8589189 
    8700    957.87903     -3.06714 
    8800    959.64731   -2.8231561 
    8900    968.61571   -2.6701969 
    9000    994.99151   -2.8482893 
    9100     1012.199   -2.7995665 
    9200    1019.0756   -2.5264678 
    9300    1027.0544   -2.2972746 
    9400     1052.681   -2.5017005 
    9500    1042.1425   -2.0020254 
    9600    1070.8557   -2.4634271 
    9700    1061.7583    -2.201965 
    9800    1073.9719   -2.5382079 
    9900    1071.7406   -2.6924644 
   10000    1057.8558   -2.7144368 
   10100    1030.7723   -2.5306915 
   10200    1021.6082   -2.7930249 
   10300     1001.402   -2.8270515 
   10400    961.21243   -2.3848275 
   10500    936.74357   -2.2063419 
   10600    900.16811    -1.653166 
   10700    918.47283   -2.1816372 
   10800    925.25504   -2.3191329 
   10900    944.78518   -2.6113868 
   11000    944.10476   -2.3461079 
   11100    941.20187   -1.9328299 
   11200    973.57512   -2.1892959 
   11300    986.73008   -1.9655969 
   11400    1017.5347   -2.1140575 
   11500    1047.2626   -2.2679644 
   11600    1068.9707   -2.3142316 
   11700    1078.8043   -2.2002931 
   11800     1080.042   -2.0437245 
   11900    1113.5231   -2.7627584 
   12000    1086.3114   -2.3281849 
   12100     1073.523   -2.3673099 
   12200    1054.5924   -2.3908812 
   12300    1038.1411   -2.5507951 
   12400    1000.3281   -2.2825927 
   12500    965.71564   -2.0652918 
   12600    977.90915    -2.818635 
   12700    939.58862   -2.3842832 
   12800     916.2241   -2.1740683 
   12900    931.78763   -2.7030102 
   13000    929.19806   -2.7093457 
   13100     911.4179   -2.2545228 
   13200    922.00161   -2.3008702 
   13300    933.99817   -2.2530663 
   13400    963.57201   -2.4810398 
   13500    977.57519   -2.2917747 
   13600    987.67608   -1.9743165 
   13700    1008.8279   -1.8808688 
   13800    1045.4178   -2.1418957 
   13900    1075.5982    -2.331458 
   14000     1081.668   -2.1253013 
   14100    1089.3199   -2.1025606 
   14200    1075.4636   -1.7651194 
   14300    1094.6854   -2.3092715 
   14400    1069.9629   -2.0377028 
   14500    1056.3267   -2.1377139 
   14600    1021.0454   -1.8351341 
   14700    1004.6992   -1.9837609 
   14800    971.44015   -1.7417159 
   14900    975.03499    -2.262135 
   15000    952.30493   -2.1428461 
   15100    922.17587   -1.7709483 
   15200    926.93593   -2.0514444 
   15300    917.42244   -1.8968196 
   15400    917.20251   -1.8233824 
   15500    939.25054   -2.1119114 
   15600    968.82311   -2.4563894 
   15700    968.59401    -2.064515 
   15800    994.05906   -2.1789755 
   15900    1000.6094    -1.847754 
   16000    1012.0701    -1.630502 
   16100    1059.2492   -2.2201709 
   16200    1079.2248   -2.2856886 
   16300     1072.583   -1.9055849 
   16400    1088.9892   -2.1719628 
   16500    1087.7456   -2.1982309 
   16600    1055.7997   -1.6990224 
   16700    1052.5361   -1.9398438 
   16800    1043.8603   -2.1542886 
   16900    1006.6713   -1.7928477 
   17000    1001.3587   -2.1515397 
   17100    971.29818   -1.9396708 
   17200    963.25033   -2.1533378 
   17300    956.33679    -2.321169 
   17400    936.08678   -2.1179069 
   17500    934.87212   -2.2450889 
   17600    940.31651   -2.4177105 
   17700    931.68906   -2.1702757 
   17800    943.21229   -2.2576651 
   17900    939.24178   -1.9015588 
   18000    959.45701   -1.9788864 
   18100    989.67701    -2.202954 
   18200    1008.4681   -2.1424763 
   18300    1043.7587   -2.4605768 
   18400    1045.7447   -2.1053757 
   18500    1037.2768   -1.5971658 
   18600    1041.6377   -1.4389099 
   18700     1071.003   -1.9156698 
   18800    1069.4952   -1.8255436 
   18900    1075.6239   -2.0372437 
   19000    1064.4141   -2.0028512 
   19100    1048.5401   -1.9878663 
   19200     1027.947   -1.9548835 
   19300    1010.8182   -2.0533839 
   19400    991.98761   -2.1298482 
   19500    973.56111   -2.1984307 
   19600    932.19346   -1.6829526 
   19700    945.00752   -2.2540608 
   19800    919.76637   -1.8746933 
   19900    913.91783    -1.796491 
   20000    924.13671   -1.9434309 
   20100    955.38795   -2.4276878 
   20200    962.58582   -2.2818173 
   20300     975.9359   -2.1923418 
   20400    1003.4687   -2.3570329 
   20500    1023.9818   -2.3559044 
   20600    1033.2326   -2.1396457 
   20700     1046.998   -2.0793121 
   20800    1044.0075    -1.712494 
   20900    1056.9821   -1.7788456 
   21000    1062.3968   -1.7770699 
   21100    1076.2963   -2.0705406 
   21200    1070.1915   -2.0688372 
   21300    1069.3128   -2.3619558 
   21400    1041.9734    -2.216286 
   21500    1016.7953   -2.2037125 
   21600    985.29353   -2.0573273 
   21700    974.09574   -2.3030138 
   21800    936.74498   -1.8769522 
   21900    936.14376   -2.1520695 
   22000    909.11727   -1.7195121 
   22100    911.05504   -1.7913466 
   22200    930.78638   -2.1050969 
   22300    928.87414   -1.8011675 
   22400     963.5236   -2.1749118 
   22500    979.74415   -2.0146729 
   22600    1007.8564   -2.0223077 
   22700    1015.3297   -1.5470632 
   22800    1046.6256   -1.6550483 
   22900    1069.3222   -1.7045899 
   23000    1085.4491   -1.7854362 
   23100     1094.271   -1.9021918 
   23200    1103.8135   -2.2227703 
   23300    1095.7504   -2.3001821 
   23400    1062.5527    -1.908333 
   23500    1052.8885   -2.0388291 
   23600    1052.6025   -2.3419414 
   23700    1021.0257   -1.9162516 
   23800    1011.8187   -1.9355111 
   23900    995.44717   -1.7455727 
   24000    978.34957    -1.495606 
   24100    972.50342    -1.446587 
   24200    978.05294   -1.6092609 
   24300    995.51913   -2.0207313 
   24400    987.18627   -1.8398234 
   24500    975.42469   -1.5587944 
   24600    998.15232   -2.0145934 
   24700    998.17178   -1.9538156 
   24800    1007.0101   -2.0811704 
   24900    987.77183    -1.581575 
   25000    1016.8111   -2.1482011 
   25100    1009.8444    -1.927986 
   25200     1013.222   -1.9433843 
   25300    1020.2527   -2.0433474 
   25400    1015.1327   -1.8986057 
   25500    1015.2521   -1.8997799 
   25600    1031.7975   -2.3039925 
   25700    1012.9832   -2.0065697 
   25800    1017.9165   -2.3126013 
   25900    1005.7192   -2.2958763 
   26000    988.89185   -2.2200875 
   26100    955.32008   -1.7784883 
   26200    930.66747   -1.4845164 
   26300    938.72926   -1.8384743 
   26400    947.94665   -2.1291718 
   26500    931.98713   -1.7761222 
   26600    943.60926   -1.9271196 
   26700     956.5472   -1.9819744 
   26800    988.09133   -2.3170747 
   26900    1007.9787   -2.2899678 
   27000    1029.2838   -2.2502185 
   27100     1061.218   -2.4499821 
   27200    1074.3009   -2.2848002 
   27300    1071.1832   -1.8699703 
   27400    1092.3065    -2.116074 
   27500     1097.405    -2.157235 
   27600    1081.5115   -1.9166871 
   27700    1077.1304   -2.1355441 
   27800    1057.1205   -2.2526921 
   27900    1028.3205   -2.4148288 
   28000    973.19847   -2.1175299 
   28100    932.95777   -2.0446585 
   28200    904.79296   -1.9762757 
   28300     903.0053   -2.2219402 
   28400    908.30247    -2.413809 
   28500    898.18876   -2.1151893 
   28600    905.78682   -2.0948693 
   28700    914.45163   -1.9945634 
   28800    941.24699   -2.2218455 
   28900    966.52749   -2.3786131 
   29000    987.25159   -2.4525811 
   29100    1001.1594   -2.4239969 
   29200    1015.9464   -2.4719211 
   29300    1009.6889   -2.1171704 
   29400    1006.5139   -1.8755295 
   29500    1028.6356   -2.2190969 
   29600    1045.8395   -2.5137769 
   29700    1039.9919   -2.3735175 
   29800    1029.5106   -2.2001808 
   29900    1017.8206   -2.0569754 
   30000    1000.9971    -1.849684 
   30100    1006.3141   -2.1761695 
   30200    1003.9387   -2.3931913 
   30300    977.41239   -2.1566991 
   30400    944.04235    -1.873303 
   30500    927.32827    -2.082833 
   30600    910.43958   -2.3670617 
   30700    870.82539   -2.1328541 
   30800    865.93485   -2.5373486 
   30900    842.14882    -2.334365 
   31000    816.70633    -1.857389 
   31100    824.50819   -1.8482626 
   31200    856.40229   -2.0751486 
   31300     876.0942   -1.7648619 
   31400    914.43086   -1.7336777 
   31500    964.26442   -2.0400327 
   31600    993.44291   -2.1101516 
   31700    1015.3576   -2.2114079 
   31800    1013.0567   -1.8965821 
   31900    1028.4014   -2.0619595 
   32000    1031.2728   -2.0109799 
   32100     1040.031   -2.1449999 
   32200    1015.3555   -1.6160233 
   32300    1020.2391     -1.79225 
   32400    1009.5314   -1.6755158 
   32500    996.25465   -1.5361028 
   32600    999.87185   -1.7907401 
   32700    964.73604   -1.1979344 
   32800    983.38598   -1.7869596 
   32900     974.9518     -1.76848 
   33000    974.82289   -1.9248692 
   33100    971.23107    -1.982307 
   33200    961.94113   -1.8862176 
   33300    964.24201   -1.9965779 
   33400    955.82587   -1.8098112 
   33500    961.27246   -1.8446933 
   33600    968.78852   -1.8198289 
   33700    972.25781   -1.5744461 
   33800    1003.6904   -1.8131226 
   33900    1053.7155   -2.3689106 
   34000    1065.0036   -2.0713108 
   34100    1074.1515   -1.8156066 
   34200    1085.6271   -1.7297331 
   34300    1092.7069   -1.6815195 
   34400    1112.4623   -2.0908657 
   34500    1101.2459   -2.0454294 
   34600    1075.7899   -1.9426621 
   34700    1047.0717   -1.9813623 
   34800    1020.0881   -2.1891634 
   34900    1007.2975   -2.7049891 
   35000    952.03764   -2.1367652 
   35100    935.13438   -2.1851752 
   35200    902.74351   -1.6786135 
   35300    906.16859   -1.7815385 
   35400    919.75466   -1.9747172 
   35500     941.8189    -2.260637 
   35600     955.0932   -2.2954322 
   35700    955.54148   -2.0123118 
   35800    985.57892    -2.365152 
   35900    998.29023       -2.337 
   36000    1005.0274   -2.2012579 
   36100    1010.7812   -2.0734489 
   36200    1020.6779   -2.0720377 
   36300    1046.6887   -2.4795403 
   36400    1030.0431   -2.0203867 
   36500    1026.5546   -1.9178183 
   36600    1044.4545   -2.3417652 
   36700    1039.9417   -2.3637948 
   36800    1035.0193   -2.4684116 
   36900    1016.3814   -2.3831659 
   37000    978.95481   -2.0303643 
   37100    964.79598   -2.3676492 
   37200    916.23506   -2.1159399 
   37300    895.82022   -2.5070437 
   37400    869.56034   -2.6122864 
   37500    821.85567   -1.9780784 
   37600    813.80186   -1.9268262 
   37700    834.01061    -2.230896 
   37800    855.48312   -2.3315428 
   37900    869.23353   -2.1019762 
   38000    906.20448   -2.3028475 
   38100    932.71321    -2.304933 
   38200    946.37635   -2.1282335 
   38300    978.55253   -2.4622942 
   38400    999.83957   -2.6323359 
   38500    1001.4934   -2.4254982 
   38600     1008.401   -2.3715299 
   38700    1012.0541     -2.27835 
   38800    1028.3761   -2.4931983 
   38900    1037.4707   -2.5967436 
   39000    1034.3408   -2.5012981 
   39100    1017.9788   -2.1747338 
   39200    1032.7898   -2.5822764 
   39300    1018.1514   -2.4217445 
   39400     997.6764   -2.2111901 
   39500    992.45159   -2.3731353 
   39600    974.06402   -2.2663285 
   39700    976.03444   -2.6185894 
   39800    946.01866   -2.2572301 
   39900    919.48886   -1.9262228 
   40000    905.85983   -1.7806657 
   40100    901.49279    -1.709286 
   40200    918.71402   -1.9522601 
   40300    929.93072    -1.860293 
   40400    971.63915   -2.2086926 
   40500    990.60342   -1.8660264 
   40600    1038.0333    -2.096803 
   40700    1053.2381   -1.7098023 
   40800    1087.3702   -1.9331468 
   40900    1107.9989   -2.0935132 
   41000    1118.1628   -2.2572553 
   41100    1102.0357   -2.0547571 
   41200    1070.5633   -1.6698531 
   41300    1062.6244   -1.9142911 
   41400    1036.7039   -1.8303441 
   41500    1015.2494   -1.8506277 
   41600    1007.0245   -2.1158841 
   41700    984.12218   -1.9828624 
   41800    964.33692   -1.8155509 
   41900    953.76815   -1.7391199 
   42000     949.6601   -1.7090576 
   42100    959.90076    -1.908555 
   42200    965.30346   -1.9367987 
   42300    971.67082   -1.9485669 
   42400    975.51323   -1.8766131 
   42500    981.87644   -1.8535962 
   42600    1002.5371   -2.1539406 
   42700    1020.9253    -2.429376 
   42800    1008.6804   -2.0686236 
   42900    1017.6312   -2.2053256 
   43000    1024.2936   -2.3188449 
   43100    1005.6162    -1.906572 
   43200    996.21626   -1.7341847 
   43300    979.32728   -1.3934966 
   43400    996.27125    -1.808017 
   43500     1001.524   -1.9668017 
   43600    984.18406   -1.6268857 
   43700    1012.9756   -2.3018091 
   43800    1008.2487    -2.244475 
   43900    1018.3226   -2.5280987 
   44000    1011.4921   -2.4506241 
   44100    990.65488    -2.062296 
   44200    977.55047   -1.8167943 
   44300    996.49948    -2.248229 
   44400    977.98363   -1.8347441 
   44500    986.14378   -1.9804936 
   44600    994.78865     -2.12337 
   44700    997.75185   -2.1540756 
   44800    976.52469   -1.6582011 
   44900     980.9744   -1.7267453 
   45000    983.98917    -1.744779 
   45100    1005.4749   -2.1544688 
   45200    1004.2153   -2.0722758 
   45300    1010.8746   -2.1785606 
   45400    1012.7653   -2.1940529 
   45500    1001.3328   -1.9314488 
   45600    1001.8946    -1.932738 
   45700    994.59343   -1.7540266 
   45800    986.58951   -1.5559981 
   45900    1008.7808   -2.0244249 
   46000    1023.6393   -2.3500472 
   46100    1002.8296   -1.9207348 
   46200    1017.6875   -2.3148877 
   46300    1005.9142   -2.1601048 
   46400    980.35458   -1.7268118 
   46500     986.8033   -2.0090531 
   46600    979.58586    -1.999028 
   46700    976.22583   -2.0712296 
   46800    979.24174   -2.2755649 
   46900    963.30662   -2.0526994 
   47000     962.8941   -2.1408893 
   47100    962.89557    -2.192986 
   47200    968.10482   -2.3067792 
   47300    949.14689   -1.8127042 
   47400    936.54482    -1.347913 
   47500    982.83362   -2.0393828 
   47600    1007.7308    -2.144126 
   47700    1036.2243   -2.2630296 
   47800    1053.6278   -2.1428405 
   47900    1076.4439   -2.2073771 
   48000    1077.8527   -1.9089971 
   48100    1103.0055   -2.2797299 
   48200    1107.5273   -2.3766493 
   48300    1079.2545   -1.9451875 
   48400    1056.0278   -1.8229614 
   48500    1052.0246   -2.3107256 
   48600    1004.9534    -1.994482 
   48700     975.1639     -2.07444 
   48800    962.66467   -2.4477932 
   48900    958.01367   -2.8460036 
   49000     910.6249   -2.1226769 
   49100    902.50132   -2.0710756 
   49200    906.91152   -2.1297865 
   49300    918.55913    -2.219198 
   49400    928.74852   -2.1843992 
   49500    948.59503   -2.3079554 
   49600    955.70958   -2.1385492 
   49700     975.6246   -2.2537903 
   49800    979.22416   -2.0368416 
   49900    996.65091   -2.1568444 
   50000     991.0829    -1.804914 
Loop time of 3.59855 on 1 procs for 50000 steps with 172 atoms

Performance: 2400.968 ns/day, 0.010 hours/ns, 13894.493 timesteps/s
79.7% CPU use with 1 MPI tasks x 1 OpenMP threads

MPI task timing breakdown:
Section |  min time  |  avg time  |  max time  |%varavg| %total
---------------------------------------------------------------
Pair    | 1.7037     | 1.7037     | 1.7037     |   0.0 | 47.34
Neigh   | 0.43455    | 0.43455    | 0.43455    |   0.0 | 12.08
Comm    | 0.28584    | 0.28584    | 0.28584    |   0.0 |  7.94
Output  | 0.44167    | 0.44167    | 0.44167    |   0.0 | 12.27
Modify  | 0.63164    | 0.63164    | 0.63164    |   0.0 | 17.55
Other   |            | 0.1011     |            |       |  2.81

Nlocal:    172 ave 172 max 172 min
Histogram: 1 0 0 0 0 0 0 0 0 0
Nghost:    365 ave 365 max 365 min
Histogram: 1 0 0 0 0 0 0 0 0 0
Neighs:    654 ave 654 max 654 min
Histogram: 1 0 0 0 0 0 0 0 0 0

Total # of neighbors = 654
Ave neighs/atom = 3.80233
Neighbor list builds = 2936
Dangerous builds = 0
Total wall time: 0:00:03
