LAMMPS (17 Nov 2015)
WARNING: OMP_NUM_THREADS environment is not set. (../comm.cpp:90)
  using 1 OpenMP thread(s) per MPI task
# LJ

print           "Seed: ${seed}"
Seed: 21850

units		metal
atom_style	atomic
boundary 	p p p


#read_restart	pol.restart_300_1

lattice 	fcc 5
Lattice spacing in x,y,z = 5 5 5
region          box block 0 10 0 10 0 10 units lattice
create_box	1 box
Created orthogonal box = (0 0 0) to (50 50 50)
  1 by 1 by 1 MPI processor grid

region 		cryst block 3 6 3 6 3 6 units lattice
create_atoms 	1 region cryst
Created 172 atoms

mass		1 12.011

pair_style 	lj/cut 9
pair_coeff 	1 1 0.05 3.0 	#solid at 0.05/liquid at 0.25 at 300 K
pair_modify 	shift yes

velocity 	all create 50.0 ${seed} mom yes rot yes
velocity 	all create 50.0 21850 mom yes rot yes

thermo		100
thermo_style 	custom step temp pe
timestep	0.002
dump		1 all custom 100 first.lammpstrj id type x y z element vx vy vz
dump_modify	1 element C
write_dump	all xyz pos.xyz modify element H
WARNING: Calling write_dump before a full system init. (../write_dump.cpp:81)
restart 	50000 restart1 restart2

fix 		1 all nvt temp 600.0 600.0 1.0
run		50000
Neighbor list info ...
  1 neighbor list requests
  update every 1 steps, delay 10 steps, check yes
  max neighbors/atom: 2000, page size: 100000
  master list distance cutoff = 11
  ghost atom cutoff = 11
  binsize = 5.5 -> bins = 10 10 10
Memory usage per processor = 3.75797 Mbytes
Step Temp PotEng 
       0           50   -41.803497 
     100    166.98033   -44.263456 
     200    141.82704   -43.430399 
     300    145.42733   -43.320026 
     400     172.4981   -43.640324 
     500    128.79724   -42.372265 
     600    191.60777   -43.458986 
     700    183.37877   -42.869172 
     800    162.60319   -42.059246 
     900    199.52405   -42.457533 
    1000    192.36568    -41.86297 
    1100    206.27224   -41.700288 
    1200    195.71645   -40.975713 
    1300    201.16956   -40.601139 
    1400    213.92572   -40.355834 
    1500    230.50581   -40.169355 
    1600    254.00245   -40.090356 
    1700    271.45909    -39.82977 
    1800    240.58043    -38.48794 
    1900    262.28562   -38.303141 
    2000    292.66469   -38.253177 
    2100    257.44217   -36.749711 
    2200    279.99249   -36.571642 
    2300    309.13618   -36.464951 
    2400    307.08398   -35.651692 
    2500    293.98663   -34.610743 
    2600    329.76437   -34.627686 
    2700    340.06463   -34.006688 
    2800    337.98165   -33.105937 
    2900    379.74434   -33.163868 
    3000      394.866   -32.573654 
    3100    381.60164   -31.354893 
    3200    406.88299   -31.005141 
    3300    394.60953    -29.80551 
    3400    406.67344   -29.116995 
    3500    413.11436   -28.306584 
    3600    419.37468   -27.516903 
    3700    463.82026   -27.499049 
    3800    469.91465   -26.639206 
    3900    449.87984   -25.246864 
    4000    488.01802   -25.133206 
    4100    536.58503   -25.206146 
    4200    558.62811   -24.650051 
    4300    570.55369   -23.905814 
    4400    495.00981   -21.350911 
    4500    488.03763   -20.347014 
    4600    528.71044   -20.324845 
    4700    545.22261   -19.753567 
    4800    522.63079   -18.363394 
    4900    497.84156   -16.937422 
    5000    541.38625   -17.002276 
    5100    579.63848   -16.914041 
    5200    579.81245   -16.015579 
    5300    570.62988   -14.998462 
    5400    602.79892   -14.910919 
    5500     612.8502   -14.357472 
    5600    630.96064   -14.071548 
    5700     678.5237   -14.495626 
    5800    713.94462   -14.777727 
    5900    675.42296   -13.641397 
    6000    698.05061   -14.042866 
    6100    651.91775   -13.100167 
    6200    642.62826   -13.086452 
    6300    624.83414   -12.955073 
    6400    601.30859   -12.718851 
    6500    599.12061   -12.938493 
    6600    599.58996   -13.197898 
    6700    631.60302   -14.180906 
    6800    564.77985   -12.994335 
    6900    536.88713   -12.589838 
    7000    558.62903   -13.184096 
    7100    540.58354   -12.822222 
    7200    544.10229   -12.855131 
    7300    534.77526   -12.511563 
    7400    566.26258   -12.978289 
    7500    592.08136   -13.260337 
    7600    607.11882   -13.263412 
    7700    608.79356   -12.965084 
    7800    604.07351   -12.553219 
    7900    616.66927   -12.537825 
    8000    622.88224   -12.395292 
    8100    637.24871   -12.458368 
    8200    628.54905   -12.057566 
    8300     630.4225   -11.944679 
    8400    621.16382   -11.648339 
    8500    635.30366   -11.920927 
    8600     617.2895   -11.532983 
    8700    621.33006   -11.656522 
    8800    600.06846   -11.225322 
    8900    610.05876   -11.485845 
    9000    627.86049   -11.949881 
    9100    626.95278   -12.067596 
    9200    615.96165   -12.020459 
    9300    593.64316   -11.733688 
    9400    576.16522   -11.533972 
    9500    609.73156   -12.439367 
    9600    558.74121   -11.462065 
    9700    554.45118   -11.459431 
    9800    556.55809   -11.530709 
    9900     552.7332    -11.40818 
   10000     566.2365    -11.59854 
   10100    598.36459   -12.134874 
   10200    613.20853   -12.272321 
   10300    593.50184   -11.656181 
   10400    621.27519   -12.082886 
   10500    627.60018   -12.064127 
   10600    609.52256   -11.542838 
   10700    592.23876   -11.051881 
   10800    613.81874   -11.429835 
   10900    605.86805   -11.187138 
   11000    625.65532   -11.590871 
   11100    618.26381   -11.436772 
   11200    619.22962   -11.507763 
   11300    602.65676   -11.226306 
   11400    586.30804   -10.947742 
   11500     577.7766    -10.81684 
   11600    575.70336   -10.794155 
   11700    582.47772   -10.929198 
   11800    563.98317   -10.463773 
   11900    585.90874   -10.844966 
   12000    600.01133   -11.015225 
   12100    622.83295   -11.374344 
   12200     603.4135   -10.805847 
   12300    600.55844   -10.601849 
   12400    600.04897   -10.446686 
   12500    576.70737   -9.7774768 
   12600    612.82277   -10.395643 
   12700    621.59447   -10.417948 
   12800    649.33896   -10.916231 
   12900    638.82392   -10.650481 
   13000     622.0272   -10.320078 
   13100    604.15958   -9.9948416 
   13200    611.75188   -10.241512 
   13300    607.11441   -10.218186 
   13400    608.35727    -10.33247 
   13500    588.87508   -9.9949939 
   13600     585.5281   -10.010464 
   13700    552.31149   -9.3376055 
   13800    558.28717   -9.4681475 
   13900    551.61369   -9.2455292 
   14000    585.16453   -9.8414994 
   14100    577.59555   -9.4797556 
   14200    620.28907   -10.203445 
   14300    633.84126   -10.294282 
   14400    626.84202   -9.9853255 
   14500    619.54433   -9.7061777 
   14600    608.71881   -9.3732034 
   14700    619.75204   -9.5375652 
   14800    640.10223   -9.9329817 
   14900     624.9345   -9.6022471 
   15000    588.82063   -8.8425216 
   15100    595.80878    -9.012468 
   15200    605.10983   -9.2280983 
   15300    582.74947   -8.7483632 
   15400    602.24522   -9.1817072 
   15500    574.89624   -8.5599154 
   15600    608.78206   -9.2672779 
   15700    604.38622   -9.1284077 
   15800    592.38624   -8.8357444 
   15900     576.7622   -8.4428188 
   16000    591.12157   -8.6677843 
   16100    608.30515   -8.9323237 
   16200    614.43808   -8.9644075 
   16300    598.30283   -8.5189009 
   16400    586.47051    -8.156844 
   16500     571.6489   -7.7074772 
   16600    594.68583   -8.0628369 
   16700    608.18783   -8.1954809 
   16800    600.81636   -7.8682295 
   16900    613.12342   -7.9744165 
   17000    620.69075   -7.9984506 
   17100       623.66     -7.95728 
   17200    635.64116   -8.1643874 
   17300      681.396   -9.2222769 
   17400    663.02456   -9.0094241 
   17500    621.57175     -8.39642 
   17600    603.96767   -8.3405992 
   17700    619.52857    -9.011903 
   17800    591.49084   -8.7053692 
   17900    599.06011   -9.1623398 
   18000    547.98249   -8.2648627 
   18100    559.59525   -8.6624896 
   18200    554.61238   -8.6133569 
   18300    565.35398   -8.8333426 
   18400    547.24215   -8.3450565 
   18500    567.92326   -8.6355743 
   18600    586.01127   -8.7914651 
   18700    569.84552    -8.134863 
   18800    571.67549    -7.797235 
   18900    601.85925   -8.0410191 
   19000    620.81054   -8.0717873 
   19100    610.96641   -7.5631508 
   19200    605.72617   -7.2399313 
   19300    618.31105   -7.3713559 
   19400    641.86816   -7.8172704 
   19500    605.91723   -7.0083704 
   19600    620.22224   -7.3302129 
   19700    611.11955   -7.1659054 
   19800    610.32895   -7.2093581 
   19900     622.4467   -7.5574039 
   20000     647.8454   -8.2506163 
   20100    588.19428   -7.1122861 
   20200    582.32413   -7.1480362 
   20300    582.39833   -7.2836613 
   20400    561.52501   -6.9147645 
   20500    570.84772   -7.1675903 
   20600    559.18768   -6.9006556 
   20700    539.78843    -6.387407 
   20800    572.19812   -6.8826967 
   20900     602.8029   -7.1421997 
   21000     634.3118   -7.2478725 
   21100    655.90168     -7.08252 
   21200    672.04018    -6.896602 
   21300    654.32424   -6.1663535 
   21400     658.0485   -6.0866543 
   21500     674.7882   -6.4447571 
   21600    656.28654   -6.1581213 
   21700    638.93333   -5.9662684 
   21800    615.72989   -5.6510367 
   21900    624.33396   -6.0273761 
   22000    611.78771   -5.9396735 
   22100    606.07749   -5.9833615 
   22200    600.03554    -5.996172 
   22300    597.44959   -6.0642123 
   22400    592.02224   -6.0444775 
   22500    593.60714   -6.1578449 
   22600    592.04205   -6.1842138 
   22700    600.28996   -6.4049019 
   22800    602.53449   -6.4798954 
   22900     572.0044   -5.8176255 
   23000     559.8658   -5.5178358 
   23100    564.67065   -5.5339292 
   23200    564.60512   -5.3495205 
   23300    596.91987   -5.7501676 
   23400    650.99572   -6.4686159 
   23500    661.16984   -6.1205252 
   23600    660.28814   -5.5616923 
   23700    689.52201    -5.775947 
   23800    699.92758   -5.7301901 
   23900    710.80914   -5.8881897 
   24000    678.11371   -5.2876258 
   24100    678.44034   -5.5716923 
   24200    645.64388   -5.2454787 
   24300     605.7358   -4.7716587 
   24400    596.10788   -4.8818588 
   24500    597.09647   -5.1181917 
   24600    617.21836   -5.6962717 
   24700    610.90325   -5.6594187 
   24800    607.10244   -5.6646389 
   24900    580.38636   -5.1404616 
   25000    588.25373   -5.3385486 
   25100    603.76056   -5.6807026 
   25200    577.77271    -5.086183 
   25300    600.01401   -5.5225491 
   25400    602.25891   -5.5050406 
   25500    572.88841   -4.7828387 
   25600     571.9376   -4.6466796 
   25700     604.5018   -5.1936007 
   25800     610.7889    -5.120582 
   25900    632.26868   -5.3779612 
   26000     630.7464   -5.1505006 
   26100    631.02477   -4.9851979 
   26200    632.84039    -4.883946 
   26300    628.45366   -4.6773833 
   26400    651.46739   -5.1188087 
   26500     642.7036   -4.9474184 
   26600    642.30776   -5.0709803 
   26700    631.12144   -5.0974791 
   26800    620.16494   -5.2674826 
   26900    597.18307   -5.2768652 
   27000    569.73984   -5.1516921 
   27100    534.39703   -4.7274226 
   27200    539.07648   -5.0361585 
   27300    542.78389   -5.2064986 
   27400     534.2605   -5.0112698 
   27500    549.28751    -5.248962 
   27600    537.31035   -4.8085759 
   27700    551.02831   -4.8550964 
   27800    574.54201   -5.0567478 
   27900    576.96379   -4.7743685 
   28000     607.6731   -5.1370339 
   28100    622.82411   -5.2329683 
   28200    651.69654    -5.726735 
   28300    642.95573   -5.4884481 
   28400     607.8373   -4.7314408 
   28500    594.42994   -4.4667186 
   28600    596.20558    -4.531971 
   28700    587.10331   -4.3379564 
   28800    608.39016   -4.7974684 
   28900    578.77052   -4.1251494 
   29000     582.5405   -4.1664888 
   29100    587.24726   -4.2082888 
   29200    576.70553   -3.8885711 
   29300    583.33155   -3.9005227 
   29400    590.47879   -3.8784167 
   29500    600.14006   -3.8489886 
   29600    605.37133   -3.6309021 
   29700    632.75434   -3.7841689 
   29800    658.78687    -3.823227 
   29900    684.91068   -3.8756761 
   30000    704.20861   -3.9156868 
   30100    714.32793   -3.9720759 
   30200    710.25789   -3.9451766 
   30300    682.49514   -3.6224292 
   30400     667.1349   -3.7333747 
   30500    635.19714   -3.5576757 
   30600    623.27058    -3.764828 
   30700    598.63719   -3.5543733 
   30800    569.02579   -3.0771751 
   30900    600.04767   -3.8521256 
   31000    584.35325   -3.5627331 
   31100    596.22245   -3.8562847 
   31200    585.00499   -3.6231679 
   31300    601.56905   -3.9992652 
   31400    583.33537    -3.600588 
   31500    603.96353   -4.0493484 
   31600    585.20462   -3.6139138 
   31700    581.78347   -3.4991324 
   31800    577.98766   -3.3519804 
   31900    577.64441   -3.2302974 
   32000    586.61898   -3.2523022 
   32100    589.00137   -3.0641961 
   32200    609.44541   -3.2218693 
   32300    617.55987   -3.0831319 
   32400    618.82553   -2.8011216 
   32500    650.51327   -3.2223611 
   32600    668.62545   -3.4238669 
   32700    671.62678   -3.4137016 
   32800    692.03224    -3.947102 
   32900    660.44636   -3.5408228 
   33000    618.50932   -3.0661251 
   33100    606.35817   -3.3154287 
   33200    588.20114   -3.4017945 
   33300    573.71085   -3.4491689 
   33400    575.34088   -3.7135681 
   33500    575.42758   -3.8332361 
   33600    573.68369   -3.8423179 
   33700    550.30027   -3.3194199 
   33800    571.71537   -3.7299599 
   33900    579.64607   -3.8090221 
   34000    582.65756    -3.757825 
   34100    594.79427   -3.8842052 
   34200    606.80082   -4.0017243 
   34300    612.50446   -3.9899125 
   34400    613.43866   -3.8949163 
   34500    597.16124   -3.4318817 
   34600    607.42533   -3.5471179 
   34700    613.43143    -3.557681 
   34800    598.31942   -3.0979246 
   34900    613.90966   -3.2930982 
   35000    603.42029   -2.8800955 
   35100    621.37782   -3.0479801 
   35200     626.3883   -2.8792361 
   35300    648.41965   -3.0440238 
   35400    654.75184   -2.8638534 
   35500    676.52226   -3.0677735 
   35600    683.60949   -3.0426185 
   35700    669.87886   -2.6876135 
   35800    636.17984   -2.0258195 
   35900    632.61843   -2.1533436 
   36000    631.92554   -2.4692236 
   36100    613.83061   -2.5086367 
   36200    597.33308   -2.6300586 
   36300    595.97984   -3.0552961 
   36400    571.11934   -2.8811201 
   36500    561.94498   -2.9283378 
   36600    539.06737   -2.5543642 
   36700    549.93506   -2.8241205 
   36800     550.9063   -2.7881844 
   36900    549.07247   -2.6160332 
   37000    552.93381   -2.5004302 
   37100    572.41147   -2.6653822 
   37200    579.21863   -2.5256412 
   37300    603.11018   -2.7719161 
   37400    603.74701   -2.5550811 
   37500    611.39355   -2.5422198 
   37600    616.64437   -2.5281451 
   37700    631.53386   -2.7816229 
   37800    627.64474   -2.6751632 
   37900    622.95308   -2.5908069 
   38000    609.25591   -2.3412624 
   38100    587.07278   -1.9141416 
   38200    599.52562     -2.23321 
   38300    612.15685   -2.5477038 
   38400    601.38849   -2.3569094 
   38500    589.79624   -2.1480592 
   38600    592.93609   -2.2473668 
   38700     604.4522   -2.5319921 
   38800    591.10665   -2.2726947 
   38900      593.796   -2.3636468 
   39000    604.32395   -2.6285404 
   39100    597.09073   -2.5255034 
   39200    607.07103   -2.8450119 
   39300      582.853   -2.4556598 
   39400    569.02717   -2.3002933 
   39500    573.90886   -2.5383326 
   39600    560.63106   -2.3416094 
   39700    550.35322    -2.149373 
   39800    552.13421   -2.1435798 
   39900    563.29539   -2.2620589 
   40000    568.56517   -2.1745479 
   40100    578.66318   -2.1186003 
   40200    592.44668   -2.0867677 
   40300    625.57499   -2.4701253 
   40400    644.39211   -2.5914655 
   40500      626.322   -1.9771233 
   40600    646.96695   -2.2934681 
   40700    660.35694   -2.5366506 
   40800    648.36843   -2.3146904 
   40900    654.90487   -2.5949189 
   41000    644.08858   -2.6067936 
   41100    618.26671   -2.3788544 
   41200    616.19573   -2.7190239 
   41300    604.44353   -2.8654161 
   41400    570.99397   -2.4726855 
   41500      572.531   -2.7501794 
   41600    563.41952   -2.7097676 
   41700    554.73525   -2.5918381 
   41800    568.18064   -2.8916319 
   41900    575.38848   -3.0027458 
   42000    562.48876    -2.634618 
   42100    571.74455   -2.7222639 
   42200    564.39958   -2.4180338 
   42300    568.87678   -2.3484587 
   42400     603.0824   -2.9228909 
   42500    617.78288   -3.1001083 
   42600    596.24808    -2.525977 
   42700    610.31517    -2.769323 
   42800    604.50435   -2.6091174 
   42900    606.63276   -2.6545886 
   43000    600.83972   -2.5330284 
   43100    603.67253   -2.6073806 
   43200    618.48676   -2.9597388 
   43300    598.98199   -2.5850839 
   43400    601.48251   -2.6995752 
   43500    596.40832   -2.6339556 
   43600    593.20381   -2.6004118 
   43700     584.3588    -2.426333 
   43800    599.64811   -2.7621757 
   43900    620.07437   -3.2102503 
   44000    620.60235   -3.2508356 
   44100    599.80328   -2.8594326 
   44200    603.43955   -3.0353687 
   44300    591.64557   -2.9329778 
   44400    569.21175   -2.6985887 
   44500    554.63692   -2.7448869 
   44600    558.24024   -3.2454498 
   44700    529.23627   -2.9859503 
   44800    533.71101   -3.3605773 
   44900    497.84085   -2.7128919 
   45000    505.06525   -2.8652263 
   45100    518.13327   -2.9953927 
   45200    537.46602   -3.1272494 
   45300    557.31316   -3.1647247 
   45400    573.10907   -3.0798812 
   45500    593.81383   -3.1306931 
   45600     585.0567   -2.6038338 
   45700    593.63405   -2.5207531 
   45800    606.14104   -2.5778223 
   45900    616.27404    -2.637326 
   46000    625.76744   -2.7451327 
   46100    628.70854    -2.766168 
   46200    624.40203   -2.6764089 
   46300    614.15524   -2.5019248 
   46400    616.87811   -2.6512092 
   46500    614.24095   -2.7222041 
   46600    589.88681   -2.3499751 
   46700     589.7746   -2.5302729 
   46800    590.47139   -2.7345172 
   46900    580.49067    -2.713619 
   47000     566.1459   -2.5964036 
   47100    565.80193   -2.7830665 
   47200    576.89368   -3.2240008 
   47300    555.81797   -2.9592849 
   47400    545.88726   -2.9258468 
   47500    517.79855    -2.442148 
   47600    523.63855   -2.6164105 
   47700    551.77853   -3.1695714 
   47800    530.69844   -2.5123634 
   47900    541.54872   -2.4146899 
   48000    563.06911   -2.4069493 
   48100    591.22944   -2.4899376 
   48200    607.87479   -2.3845265 
   48300    641.08122   -2.7682474 
   48400    648.13113   -2.7070705 
   48500    639.05224   -2.4158807 
   48600    641.85882   -2.4712329 
   48700     657.9051   -2.8941302 
   48800     653.7707   -2.9686622 
   48900    636.20891   -2.8447332 
   49000    608.74849   -2.5516297 
   49100    584.29474   -2.3328615 
   49200    590.05245   -2.7454141 
   49300    575.81963   -2.6652762 
   49400    586.71868   -3.0887421 
   49500    563.30967   -2.7143698 
   49600    549.97647   -2.4912247 
   49700    544.99097   -2.3707274 
   49800    567.26969    -2.772674 
   49900    588.91943   -3.0949775 
   50000    595.00183   -3.0272684 
Loop time of 4.20814 on 1 procs for 50000 steps with 172 atoms

Performance: 2053.165 ns/day, 0.012 hours/ns, 11881.740 timesteps/s
79.8% CPU use with 1 MPI tasks x 1 OpenMP threads

MPI task timing breakdown:
Section |  min time  |  avg time  |  max time  |%varavg| %total
---------------------------------------------------------------
Pair    | 2.4504     | 2.4504     | 2.4504     |   0.0 | 58.23
Neigh   | 0.37284    | 0.37284    | 0.37284    |   0.0 |  8.86
Comm    | 0.24686    | 0.24686    | 0.24686    |   0.0 |  5.87
Output  | 0.44528    | 0.44528    | 0.44528    |   0.0 | 10.58
Modify  | 0.58306    | 0.58306    | 0.58306    |   0.0 | 13.86
Other   |            | 0.1097     |            |       |  2.61

Nlocal:    172 ave 172 max 172 min
Histogram: 1 0 0 0 0 0 0 0 0 0
Nghost:    324 ave 324 max 324 min
Histogram: 1 0 0 0 0 0 0 0 0 0
Neighs:    713 ave 713 max 713 min
Histogram: 1 0 0 0 0 0 0 0 0 0

Total # of neighbors = 713
Ave neighs/atom = 4.14535
Neighbor list builds = 2274
Dangerous builds = 0
Total wall time: 0:00:04
