LAMMPS (17 Nov 2015)
WARNING: OMP_NUM_THREADS environment is not set. (../comm.cpp:90)
  using 1 OpenMP thread(s) per MPI task
# LJ

print           "Seed: ${seed}"
Seed: 29920

units		metal
atom_style	atomic
boundary 	p p p


#read_restart	pol.restart_300_1

lattice 	fcc 5
Lattice spacing in x,y,z = 5 5 5
region          box block 0 10 0 10 0 10 units lattice
create_box	1 box
Created orthogonal box = (0 0 0) to (50 50 50)
  1 by 1 by 1 MPI processor grid

region 		cryst block 3 6 3 6 3 6 units lattice
create_atoms 	1 region cryst
Created 172 atoms

mass		1 12.011

pair_style 	lj/cut 9
pair_coeff 	1 1 0.05 3.0 	#solid at 0.05/liquid at 0.25 at 300 K
pair_modify 	shift yes

velocity 	all create 50.0 ${seed} mom yes rot yes
velocity 	all create 50.0 29920 mom yes rot yes

thermo		100
thermo_style 	custom step temp pe
timestep	0.002
dump		1 all custom 100 first.lammpstrj id type x y z element vx vy vz
dump_modify	1 element C
write_dump	all xyz pos.xyz modify element H
WARNING: Calling write_dump before a full system init. (../write_dump.cpp:81)
restart 	50000 restart1 restart2

fix 		1 all nvt temp 3000.0 3000.0 1.0
run		50000
Neighbor list info ...
  1 neighbor list requests
  update every 1 steps, delay 10 steps, check yes
  max neighbors/atom: 2000, page size: 100000
  master list distance cutoff = 11
  ghost atom cutoff = 11
  binsize = 5.5 -> bins = 10 10 10
Memory usage per processor = 3.75797 Mbytes
Step Temp PotEng 
       0           50   -41.803497 
     100    158.38343   -44.045586 
     200    145.12814   -43.419396 
     300    146.75101   -43.261743 
     400    161.27344   -43.246821 
     500    115.34404   -41.870399 
     600    181.61514    -42.96462 
     700      178.608    -42.40841 
     800    169.70284    -41.76862 
     900    193.04565   -41.783978 
    1000    204.81896   -41.471186 
    1100    203.56715   -40.877989 
    1200      234.174   -40.931547 
    1300    236.39242   -40.301863 
    1400    229.05985   -39.430952 
    1500    266.50568   -39.470822 
    1600    266.59762   -38.654764 
    1700    260.36296   -37.674263 
    1800    293.77605   -37.534842 
    1900    276.33687   -36.248008 
    2000     315.7302   -36.108804 
    2100    325.91993   -35.257804 
    2200    331.80315   -34.291406 
    2300    367.58964   -33.894515 
    2400    347.29177   -32.217695 
    2500    368.23405   -31.437362 
    2600    374.65846   -30.271853 
    2700    422.01448   -29.891065 
    2800    422.60099   -28.451615 
    2900    461.40808   -27.792148 
    3000    493.47119   -26.868418 
    3100    499.67967   -25.279655 
    3200    500.93411   -23.581384 
    3300    544.81814   -22.715375 
    3400    615.57792   -22.261636 
    3500    659.23164   -20.955675 
    3600    724.02011   -19.896618 
    3700    779.00607   -18.490922 
    3800    833.87053   -16.909516 
    3900    882.64795   -15.029972 
    4000    918.21602    -12.64533 
    4100    1003.1832   -11.215079 
    4200    1120.0508   -10.173569 
    4300    1234.2027    -8.723101 
    4400    1382.0804   -7.6783768 
    4500    1555.6322    -6.730856 
    4600    1757.1991   -5.9679443 
    4700    1991.9418   -5.4633569 
    4800    2232.0749   -4.6564034 
    4900     2522.142   -4.6206175 
    5000    2791.9925   -4.0049028 
    5100    3054.6209   -3.2902476 
    5200    3259.3208   -1.6655662 
    5300    3522.8346   -2.0060753 
    5400    3727.5055   -2.1268215 
    5500    3847.0613   -1.8520848 
    5600    3879.0831   -1.4615643 
    5700    3870.5544     -2.13877 
    5800    3736.1454   -1.8819552 
    5900    3555.4123   -1.9547824 
    6000    3311.4371   -1.2996499 
    6100    3103.3626   -1.4779485 
    6200    2895.6485   -1.2425478 
    6300    2737.8164   -1.4790089 
    6400    2613.1337   -1.7242917 
    6500    2503.2895   -1.5087395 
    6600    2449.0149   -1.7211042 
    6700    2400.3091   -1.2200659 
    6800    2439.6327   -1.8250404 
    6900    2482.1538   -1.6815612 
    7000    2566.6279   -1.6754368 
    7100    2689.1476   -1.8055971 
    7200    2824.5364   -1.6544527 
    7300    2975.2983   -1.4985061 
    7400    3096.9281  -0.59316977 
    7500    3276.4495   -1.1933923 
    7600    3406.8567   -1.1822272 
    7700    3522.0519   -1.6292296 
    7800    3568.0872   -1.5445276 
    7900    3567.1019   -1.5586276 
    8000     3527.499   -1.8895233 
    8100    3397.6255   -1.2145933 
    8200    3278.2567   -1.4797183 
    8300    3127.3194   -1.3718263 
    8400    2997.6641   -1.7100792 
    8500     2842.375   -1.2126548 
    8600    2718.7693  -0.96675617 
    8700    2660.6355   -1.6048469 
    8800    2608.5223   -1.7983603 
    8900    2558.6095   -1.3983327 
    9000    2550.9929   -1.2770804 
    9100    2602.2924   -1.7845903 
    9200    2618.3154  -0.88602347 
    9300    2722.1703   -1.3638686 
    9400    2800.3769  -0.78237345 
    9500    2937.4152   -1.1737477 
    9600    3044.3847  -0.75453358 
    9700    3175.1317  -0.93739453 
    9800    3297.3992   -1.2470718 
    9900    3402.7598   -1.7192319 
   10000    3426.9744   -1.1469094 
   10100    3449.1094   -1.3859283 
   10200    3430.3029   -1.5971845 
   10300    3353.6351   -1.3474753 
   10400    3255.7189   -1.2596162 
   10500    3144.9011   -1.2625729 
   10600    3027.5069   -1.2353203 
   10700    2941.7533   -1.8040701 
   10800    2840.4583   -1.7759941 
   10900     2762.273   -1.8816322 
   11000    2707.4686   -2.0394759 
   11100    2663.1332    -1.920203 
   11200    2635.0103   -1.6162006 
   11300    2661.2003   -1.9369166 
   11400    2679.0187   -1.5206764 
   11500    2723.1711   -1.1637621 
   11600    2787.6183  -0.78817599 
   11700    2916.5021   -1.4937693 
   11800    3001.6147   -1.0283493 
   11900    3132.8298   -1.5732307 
   12000    3183.7219  -0.53255028 
   12100    3290.2716   -1.1426143 
   12200    3354.7155   -1.3424081 
   12300    3371.8739   -1.1587739 
   12400    3405.1478   -2.0836444 
   12500    3344.5493   -1.6786592 
   12600    3267.0963    -1.543409 
   12700    3151.6914  -0.99215048 
   12800    3062.5996   -1.2222646 
   12900     2975.929   -1.5054952 
   13000    2877.4026   -1.3762709 
   13100    2819.2249     -1.84325 
   13200    2709.4237  -0.78106198 
   13300    2694.3115   -1.3639452 
   13400    2688.9547    -1.666873 
   13500    2669.3695   -1.1631474 
   13600    2705.4601   -1.3838746 
   13700    2747.4144   -1.2673218 
   13800    2812.0556   -1.1933906 
   13900    2901.3152   -1.3345897 
   14000    3006.9858   -1.6275744 
   14100    3078.6496   -1.1201816 
   14200    3152.6337  -0.79297328 
   14300    3247.5809   -1.2127259 
   14400    3307.1842   -1.2934073 
   14500    3359.6351   -1.7895166 
   14600    3360.2296   -1.8321003 
   14700    3305.2998   -1.3052929 
   14800    3241.1145   -1.1644017 
   14900    3183.1051   -1.6193496 
   15000    3067.2447   -1.0724963 
   15100    2980.1663   -1.2177827 
   15200    2912.1737   -1.6865831 
   15300    2813.9817   -1.2613498 
   15400    2785.1598   -2.0112364 
   15500    2713.0535   -1.3972586 
   15600    2705.4239   -1.7483408 
   15700    2706.3358   -1.8120363 
   15800    2682.1596  -0.83388691 
   15900    2746.6176   -1.3206955 
   16000    2828.2086   -1.7650193 
   16100    2890.8303   -1.4700661 
   16200    2987.8009   -1.7197332 
   16300    3071.2785   -1.6085741 
   16400    3154.2264   -1.5654424 
   16500    3204.3269    -1.030941 
   16600    3290.4761   -1.6723591 
   16700    3292.9715   -0.9765626 
   16800     3327.266   -1.5648027 
   16900    3283.9936   -1.0603125 
   17000    3233.5752  -0.93504108 
   17100      3134.44  -0.18164072 
   17200    3114.1783   -1.4656623 
   17300    2993.1532  -0.65371638 
   17400    2949.5354   -1.5364378 
   17500    2887.6861   -1.8541435 
   17600    2805.0512   -1.4591635 
   17700    2758.9249   -1.5289062 
   17800    2727.4139    -1.526405 
   17900    2702.1281   -1.2131399 
   18000    2714.7077   -1.2653333 
   18100    2759.8871   -1.5841996 
   18200     2794.147    -1.229401 
   18300    2874.9867   -1.5452576 
   18400    2956.3266   -1.6310174 
   18500    3017.2263   -1.1574279 
   18600     3137.157   -2.0038259 
   18700     3172.481   -1.1641813 
   18800    3229.3035   -1.1076855 
   18900    3301.5158   -1.8445296 
   19000    3316.7478   -1.8597438 
   19100    3274.7065   -1.1735058 
   19200    3242.7918   -1.2594607 
   19300    3172.1665  -0.93064613 
   19400    3110.3622   -1.1186616 
   19500    3050.9314   -1.5422793 
   19600     2973.639   -1.5974523 
   19700    2869.4592  -0.92251261 
   19800    2862.2016   -2.1566826 
   19900    2799.7961    -1.875787 
   20000    2738.4159   -1.2452204 
   20100    2751.3158   -1.8433138 
   20200    2732.4909   -1.3111799 
   20300    2770.0405    -1.606852 
   20400    2792.5952   -1.1856418 
   20500    2854.7642   -1.2825518 
   20600    2917.1009   -1.1341914 
   20700    3018.1864   -1.6986649 
   20800    3080.6539   -1.3902245 
   20900    3162.3707   -1.6290473 
   21000    3162.6897   -0.3455784 
   21100    3250.4686    -1.337273 
   21200    3287.9589   -1.6990062 
   21300    3273.3718   -1.4203116 
   21400     3253.939   -1.5607427 
   21500    3180.0385  -0.96795447 
   21600    3141.2017   -1.4871763 
   21700    3032.5302  -0.66336817 
   21800    2981.8702   -1.1552718 
   21900    2937.5202   -1.7011312 
   22000    2862.6273    -1.389683 
   22100    2817.6102   -1.4564652 
   22200    2785.9358   -1.5045431 
   22300    2778.9587   -1.7447833 
   22400    2769.2623   -1.5465908 
   22500    2796.7613   -1.7896821 
   22600    2825.2292   -1.6823268 
   22700    2884.3706   -1.9338194 
   22800    2958.4886   -2.2684894 
   22900    2988.2819   -1.4819058 
   23000    3020.8074  -0.71590936 
   23100    3126.9378   -1.6617696 
   23200    3159.2702   -1.1822761 
   23300    3196.0318   -1.0907076 
   23400    3217.8843   -1.0472336 
   23500    3256.1536   -1.8027059 
   23600    3228.8465   -1.5462256 
   23700    3215.6023   -2.0364353 
   23800    3119.7498   -1.0635057 
   23900    3083.0894   -1.6226117 
   24000    2992.9692   -1.1191994 
   24100    2957.2248    -1.791631 
   24200    2892.9403    -1.682189 
   24300    2847.4922   -1.7496576 
   24400     2807.107   -1.6403584 
   24500    2777.7475   -1.4379823 
   24600    2761.3335    -1.158141 
   24700    2791.7831    -1.542338 
   24800    2819.8066   -1.5241716 
   24900    2850.5167   -1.2363902 
   25000    2903.0604   -1.1650765 
   25100    2969.3332   -1.2034828 
   25200    3014.4991  -0.71841049 
   25300    3128.7291   -1.8405498 
   25400    3152.5548   -1.1584427 
   25500    3207.1625   -1.4374297 
   25600    3205.8219  -0.82796019 
   25700    3250.5604   -1.6492774 
   25800    3242.9427   -1.7812212 
   25900    3210.0197   -1.8104975 
   26000    3096.4074  -0.42447163 
   26100    3086.5878   -1.5875612 
   26200    3031.0929   -1.8381602 
   26300    2948.3561   -1.4464149 
   26400    2897.8245    -1.623276 
   26500    2829.0068   -1.1576875 
   26600    2809.4779   -1.5008304 
   26700    2782.6517   -1.3677885 
   26800    2796.1685   -1.7937054 
   26900    2752.3778  -0.60644051 
   27000    2834.3552   -1.8330812 
   27100    2874.3783   -1.7940253 
   27200    2912.8385    -1.446976 
   27300     2984.317   -1.6063731 
   27400    3025.5656   -1.0396323 
   27500    3112.3761   -1.5462869 
   27600    3157.8875   -1.3418944 
   27700    3216.7524   -1.7567956 
   27800    3211.6685    -1.123061 
   27900     3192.463  -0.59304059 
   28000    3215.9246   -1.4300335 
   28100    3193.5246   -1.6972596 
   28200    3106.2895  -0.96023968 
   28300    3032.8953   -0.8541904 
   28400    2984.5706   -1.4707088 
   28500    2902.8627   -1.3422452 
   28600    2814.8508   -0.8581313 
   28700    2758.5433  -0.73072908 
   28800    2773.3984   -1.7739299 
   28900    2770.4118   -2.0191069 
   29000    2758.7357   -1.6614375 
   29100    2772.3178   -1.4349748 
   29200    2818.1499   -1.4511291 
   29300    2873.9122   -1.1301881 
   29400     2993.413   -1.6523666 
   29500    3096.4814   -1.3826909 
   29600    3253.4812   -2.3440412 
   29700    3333.5336   -2.1875476 
   29800    3370.3337   -1.9902514 
   29900    3318.5568  -0.70034365 
   30000    3327.7492   -1.3968627 
   30100    3268.1177   -0.8902759 
   30200    3230.1975   -0.9991228 
   30300    3217.9563   -1.7657259 
   30400     3155.426   -1.5049583 
   30500    3102.2703   -1.4947409 
   30600    3057.3594    -1.676385 
   30700       3007.6   -1.7059166 
   30800    2929.1588   -1.0000564 
   30900    2901.7173    -1.292502 
   31000    2872.3068   -1.3148926 
   31100    2866.3308   -1.6560475 
   31200    2840.1252   -1.3187554 
   31300    2828.8945   -1.0563898 
   31400    2840.7477   -1.0447149 
   31500    2869.6676   -1.1045344 
   31600    2916.7473   -1.2155682 
   31700    2966.0747   -1.0189506 
   31800    3067.5467   -1.6273591 
   31900    3157.9245    -1.766744 
   32000     3221.905   -1.3252767 
   32100    3302.6679   -1.5120129 
   32200    3340.9894   -1.2283596 
   32300    3384.7062   -1.6546582 
   32400    3358.8087   -1.2521736 
   32500    3331.9431   -1.6955421 
   32600    3214.2116   -1.1152862 
   32700    3103.6343   -1.5969991 
   32800    2961.7629   -1.6701399 
   32900    2830.9737   -1.3273914 
   33000    2777.2041     -1.62407 
   33100    2757.0668   -1.8261403 
   33200    2714.2953  -0.98048161 
   33300    2756.7653   -1.6043592 
   33400    2788.3124   -1.6632325 
   33500    2787.4947   -0.7409718 
   33600    2849.4621  -0.98711037 
   33700    2923.7571   -1.3553131 
   33800    2991.8269    -1.521495 
   33900    3047.9077   -1.4653702 
   34000    3099.2679   -1.4477422 
   34100    3149.3294    -1.635173 
   34200     3178.103   -1.6179136 
   34300    3198.3607   -1.7430987 
   34400    3184.1075   -1.4352736 
   34500    3171.6747   -1.4928199 
   34600    3095.2682    -0.490425 
   34700    3082.2055   -1.2267755 
   34800     3022.901   -1.2905191 
   34900    2939.0999   -1.1430212 
   35000    2875.3391   -1.6464774 
   35100     2794.127   -1.7880573 
   35200    2697.9861   -1.3800635 
   35300     2658.735   -1.7932463 
   35400    2611.9462   -1.4935332 
   35500    2611.1176   -1.6304981 
   35600    2636.4616   -1.6957848 
   35700    2674.9482   -1.2488383 
   35800    2787.8304   -1.3692896 
   35900    2949.7066   -1.5682881 
   36000    3096.0653   -1.4636444 
   36100    3193.1078   -1.5035622 
   36200    3225.4735   -1.2794198 
   36300     3246.814   -1.5371228 
   36400    3222.4279    -1.232533 
   36500    3209.7013   -1.5559231 
   36600    3155.2092   -1.2569385 
   36700    3083.7152  -0.80993325 
   36800    3049.0556   -1.3076564 
   36900    2988.8854    -1.286054 
   37000    2892.2605  -0.36925346 
   37100    2878.7894   -1.1754925 
   37200    2875.6141   -1.9676328 
   37300    2825.9017   -1.4819853 
   37400    2793.7948   -1.0980638 
   37500    2810.6052    -1.485614 
   37600    2837.5697   -1.7595764 
   37700    2852.7809   -1.4157673 
   37800    2912.6368   -1.6679762 
   37900     2983.187   -1.7678001 
   38000    3050.5246   -1.4829957 
   38100    3137.9934   -1.4999491 
   38200    3218.5662   -1.5057701 
   38300    3281.0446   -1.4834711 
   38400    3318.5619   -1.4211433 
   38500    3315.4715   -1.0473047 
   38600     3314.806   -1.3815855 
   38700      3240.17   -0.7461639 
   38800    3179.2112   -1.1170913 
   38900    3109.0136   -1.8652395 
   39000    2959.6727   -1.1676116 
   39100    2867.4467   -1.5201744 
   39200    2804.2618   -1.7833034 
   39300    2750.6382   -1.4134156 
   39400    2753.1621   -1.6395178 
   39500    2768.4479   -1.7566492 
   39600    2783.7387   -1.6277445 
   39700    2802.2659   -1.3766076 
   39800    2833.0856   -1.2092494 
   39900     2901.307   -1.6981078 
   40000    2921.8693   -1.0205449 
   40100    3000.5225   -1.5894048 
   40200    3031.2487   -1.1248665 
   40300    3093.6852    -1.435671 
   40400    3158.3459    -1.974652 
   40500    3163.2498   -1.4368144 
   40600    3202.1408    -1.918472 
   40700    3190.0679   -1.6238998 
   40800    3150.5455   -1.0718777 
   40900    3117.9288    -1.036411 
   41000    3109.7316   -1.9488679 
   41100     3022.625   -1.4914568 
   41200    2944.2716   -1.5134581 
   41300    2865.4206   -1.6338745 
   41400    2778.6675   -1.4761034 
   41500    2721.6467    -1.666582 
   41600    2659.9926   -1.3051627 
   41700    2674.9452   -2.1275921 
   41800    2636.9089   -1.2427869 
   41900    2666.2218   -1.2446809 
   42000    2751.9353   -1.7462099 
   42100    2859.0837   -1.8126831 
   42200    2987.9984   -1.5807502 
   42300    3134.0811   -1.7716968 
   42400    3228.4811   -1.7967813 
   42500    3262.4317   -1.6075353 
   42600    3258.4914   -1.3391915 
   42700    3228.8797   -1.0033735 
   42800    3183.5771  -0.63573028 
   42900    3194.9738   -1.8231874 
   43000      3132.14   -1.5881158 
   43100     3075.365   -1.6166109 
   43200     3001.602   -1.2941471 
   43300    2959.6756   -1.5903727 
   43400    2875.5969  -0.80664685 
   43500    2871.3933   -1.5797194 
   43600     2837.088   -1.4471974 
   43700    2813.1229   -1.2884781 
   43800    2810.4297   -1.3194029 
   43900    2834.7211   -1.6046861 
   44000    2840.2482   -1.1469943 
   44100    2908.2954   -1.6884142 
   44200    2960.5851   -1.4816137 
   44300    3022.0569     -1.07123 
   44400    3137.8178    -1.610441 
   44500    3231.2511   -1.6563701 
   44600    3297.7916   -1.4283258 
   44700    3357.9429   -1.5919847 
   44800    3377.0156   -1.5217698 
   44900    3325.1419  -0.60695654 
   45000    3315.9837   -1.3884122 
   45100    3203.8234  -0.72491694 
   45200    3126.1306   -1.5924014 
   45300    3000.1675   -1.7380544 
   45400    2860.3399   -1.1934573 
   45500    2804.2569   -1.5510304 
   45600    2773.1064   -1.5545384 
   45700    2779.3036   -1.8112161 
   45800    2755.2015   -1.0521454 
   45900    2776.1031   -1.0155082 
   46000    2825.7074    -1.377019 
   46100    2880.0117   -1.6306255 
   46200    2939.1735   -1.8326054 
   46300    2984.3685   -1.6375996 
   46400    3025.6918    -1.372559 
   46500    3067.0778   -1.1742964 
   46600    3121.7953   -1.4389006 
   46700    3125.3127  -0.76055301 
   46800    3165.0697   -1.1475491 
   46900    3201.4783   -1.7611283 
   47000    3169.7456   -1.2239093 
   47100    3143.3389   -1.1970421 
   47200    3102.5195    -1.234207 
   47300    3052.2486   -1.4708515 
   47400    2986.2363   -1.6983603 
   47500    2897.1437   -1.6241034 
   47600    2801.4306   -1.3541903 
   47700    2733.3544   -1.4176083 
   47800    2672.8799   -1.1849063 
   47900    2667.4597   -1.6594368 
   48000    2657.7219    -1.522555 
   48100     2695.693   -1.8651372 
   48200     2715.699   -1.1814862 
   48300    2816.6671    -1.554736 
   48400    2916.9457   -1.1968076 
   48500     3065.249   -1.6227231 
   48600     3163.498   -1.4722405 
   48700    3221.7492   -1.4274051 
   48800     3236.496   -1.2739741 
   48900    3254.3582   -1.7349982 
   49000    3231.9867   -1.6791805 
   49100    3195.1638   -1.5953611 
   49200    3153.5912   -1.6210473 
   49300    3096.8676   -1.4804993 
   49400    3054.0183   -1.7338196 
   49500    2951.0341  -0.65591764 
   49600    2921.0892   -1.1167752 
   49700    2881.9003   -1.2134257 
   49800    2830.4791  -0.82376734 
   49900    2863.2513   -2.0300798 
   50000    2838.3566   -1.7174433 
Loop time of 3.63458 on 1 procs for 50000 steps with 172 atoms

Performance: 2377.169 ns/day, 0.010 hours/ns, 13756.763 timesteps/s
81.0% CPU use with 1 MPI tasks x 1 OpenMP threads

MPI task timing breakdown:
Section |  min time  |  avg time  |  max time  |%varavg| %total
---------------------------------------------------------------
Pair    | 1.5485     | 1.5485     | 1.5485     |   0.0 | 42.60
Neigh   | 0.64034    | 0.64034    | 0.64034    |   0.0 | 17.62
Comm    | 0.32459    | 0.32459    | 0.32459    |   0.0 |  8.93
Output  | 0.44859    | 0.44859    | 0.44859    |   0.0 | 12.34
Modify  | 0.58497    | 0.58497    | 0.58497    |   0.0 | 16.09
Other   |            | 0.08762    |            |       |  2.41

Nlocal:    172 ave 172 max 172 min
Histogram: 1 0 0 0 0 0 0 0 0 0
Nghost:    343 ave 343 max 343 min
Histogram: 1 0 0 0 0 0 0 0 0 0
Neighs:    638 ave 638 max 638 min
Histogram: 1 0 0 0 0 0 0 0 0 0

Total # of neighbors = 638
Ave neighs/atom = 3.7093
Neighbor list builds = 4594
Dangerous builds = 3287
Total wall time: 0:00:03
