LAMMPS (17 Nov 2015)
WARNING: OMP_NUM_THREADS environment is not set. (../comm.cpp:90)
  using 1 OpenMP thread(s) per MPI task
# LJ

print           "Seed: ${seed}"
Seed: 3441

units		metal
atom_style	atomic
boundary 	p p p


#read_restart	pol.restart_300_1

lattice 	fcc 5
Lattice spacing in x,y,z = 5 5 5
region          box block 0 10 0 10 0 10 units lattice
create_box	1 box
Created orthogonal box = (0 0 0) to (50 50 50)
  1 by 1 by 1 MPI processor grid

region 		cryst block 3 6 3 6 3 6 units lattice
create_atoms 	1 region cryst
Created 172 atoms

mass		1 12.011

pair_style 	lj/cut 9
pair_coeff 	1 1 0.05 3.0 	#solid at 0.05/liquid at 0.25 at 300 K
pair_modify 	shift yes

velocity 	all create 50.0 ${seed} mom yes rot yes
velocity 	all create 50.0 3441 mom yes rot yes

thermo		100
thermo_style 	custom step temp pe
timestep	0.002
dump		1 all custom 100 first.lammpstrj id type x y z element vx vy vz
dump_modify	1 element C
write_dump	all xyz pos.xyz modify element H
WARNING: Calling write_dump before a full system init. (../write_dump.cpp:81)
restart 	50000 restart1 restart2

fix 		1 all nvt temp 500.0 500.0 1.0
run		50000
Neighbor list info ...
  1 neighbor list requests
  update every 1 steps, delay 10 steps, check yes
  max neighbors/atom: 2000, page size: 100000
  master list distance cutoff = 11
  ghost atom cutoff = 11
  binsize = 5.5 -> bins = 10 10 10
Memory usage per processor = 3.75797 Mbytes
Step Temp PotEng 
       0           50   -41.803497 
     100    151.41101   -43.924426 
     200    140.45959   -43.417479 
     300    147.93372     -43.4001 
     400    168.94549    -43.59878 
     500    131.42544   -42.496406 
     600    167.72308   -42.988304 
     700    175.08702   -42.775146 
     800    157.44742   -42.066788 
     900    208.15344   -42.766385 
    1000    165.57544   -41.412266 
    1100    194.58674   -41.632616 
    1200    195.95857   -41.205959 
    1300     206.2858   -40.971121 
    1400    218.47121   -40.733554 
    1500    225.08299   -40.358969 
    1600     246.6588   -40.306111 
    1700    243.33185   -39.652826 
    1800    230.67456   -38.822663 
    1900    254.37322   -38.731302 
    2000    278.69832   -38.622134 
    2100    280.64157   -38.060772 
    2200    308.44015   -37.993671 
    2300    276.24995   -36.592729 
    2400    302.22022     -36.4845 
    2500    301.67883   -35.771445 
    2600    314.35174   -35.348907 
    2700    342.50249    -35.22479 
    2800    343.06087   -34.492969 
    2900    361.76935   -34.146666 
    3000    359.40371   -33.342351 
    3100    353.74406   -32.457497 
    3200    372.53469   -32.123499 
    3300    379.69184   -31.499557 
    3400    382.39158   -30.782073 
    3500    415.30602   -30.704354 
    3600    423.59356   -30.094081 
    3700    414.76914   -29.146756 
    3800    444.34179   -29.027349 
    3900    454.87422   -28.494552 
    4000    458.28489   -27.820933 
    4100    457.03039   -27.064911 
    4200    482.53607   -26.914928 
    4300    480.44414   -26.202911 
    4400    468.31609   -25.322359 
    4500    491.54317   -25.217237 
    4600     494.9443   -24.680035 
    4700    505.79973   -24.337907 
    4800    546.55879    -24.70538 
    4900    482.25253   -22.834969 
    5000    518.38097   -23.210668 
    5100    547.60121   -23.459141 
    5200    496.18101   -21.992369 
    5300     504.9685   -21.872658 
    5400    558.63677   -22.771591 
    5500    557.00822   -22.526774 
    5600    552.24234   -22.320106 
    5700    509.34324   -21.343903 
    5800    541.39594   -22.073308 
    5900    501.96949   -21.266136 
    6000    540.35706   -22.219221 
    6100    560.51404    -22.84888 
    6200    519.40289   -22.200995 
    6300     529.6333   -22.731334 
    6400     509.5983   -22.633458 
    6500     512.1938   -23.048847 
    6600    472.50197   -22.503651 
    6700    454.73718   -22.374326 
    6800    482.45708   -23.193902 
    6900    467.25125   -23.024865 
    7000    463.75488   -23.076661 
    7100    431.33996   -22.420174 
    7200    418.40016   -22.084818 
    7300    454.27452   -22.722523 
    7400    451.28404    -22.40752 
    7500    478.78893   -22.684199 
    7600    451.28106   -21.707817 
    7700     450.0636    -21.27649 
    7800    464.14927     -21.1259 
    7900    480.01712   -20.959609 
    8000    457.68598   -19.952471 
    8100    488.84444   -20.123839 
    8200    521.13349   -20.308455 
    8300    496.49359   -19.289145 
    8400    527.68604   -19.536317 
    8500    533.84595   -19.256149 
    8600    489.06519   -17.938828 
    8700    515.77078   -18.243479 
    8800    524.24641     -18.1541 
    8900    561.93696   -18.750899 
    9000    554.09585   -18.428722 
    9100    563.62307   -18.615611 
    9200    518.36605   -17.698093 
    9300    529.81321   -18.094567 
    9400    512.25486   -17.885692 
    9500    496.44821   -17.732519 
    9600      531.215   -18.719083 
    9700    517.31124   -18.670578 
    9800    498.74435   -18.518112 
    9900    517.71494   -19.186966 
   10000    499.35194   -19.048652 
   10100    481.31918   -18.908025 
   10200    489.81485   -19.318866 
   10300    469.48179   -19.068957 
   10400    481.99828   -19.520585 
   10500    433.52515   -18.561323 
   10600    421.68656   -18.317257 
   10700    457.96042   -19.042777 
   10800    447.10332   -18.632238 
   10900    452.22475   -18.481379 
   11000    501.86016   -19.249264 
   11100    505.64969   -18.999299 
   11200    490.99333    -18.36929 
   11300    493.92425   -18.128387 
   11400    488.22548   -17.685828 
   11500    487.44909   -17.340492 
   11600    484.36283   -16.942818 
   11700    499.81529   -16.939967 
   11800    496.38228   -16.528874 
   11900    496.72202   -16.221553 
   12000     544.1283   -16.975843 
   12100    561.38577   -17.149266 
   12200    510.87298   -15.941479 
   12300    508.01313   -15.835284 
   12400    508.74528   -15.813091 
   12500    506.42446   -15.734712 
   12600    513.53312   -15.885582 
   12700    538.67191   -16.478749 
   12800    544.79167   -16.709286 
   12900     502.2204   -15.913973 
   13000    502.84761      -16.088 
   13100    502.88371   -16.270235 
   13200    471.51935   -15.761431 
   13300    471.30656   -15.893469 
   13400    497.11784   -16.563127 
   13500    526.16841   -17.295727 
   13600    498.45347   -16.789579 
   13700    472.71597   -16.322579 
   13800    446.17772   -15.786684 
   13900    441.18001   -15.639008 
   14000    474.79717    -16.24558 
   14100     481.6663   -16.196103 
   14200    494.45244   -16.237242 
   14300    521.15004   -16.575717 
   14400    521.93825   -16.358168 
   14500     512.7531   -15.946575 
   14600    500.23477   -15.475866 
   14700    498.87155   -15.248311 
   14800    513.42311   -15.379473 
   14900    555.23586   -16.162077 
   15000     540.5006    -15.77413 
   15100    545.03226   -15.886478 
   15200    499.89449   -14.970524 
   15300    489.65391   -14.865707 
   15400    494.71043   -15.081595 
   15500    507.69636   -15.460789 
   15600     489.1391   -15.132338 
   15700    494.36345   -15.312663 
   15800    468.78328   -14.793932 
   15900    498.56826    -15.47073 
   16000    486.97861   -15.225894 
   16100    488.80391   -15.278301 
   16200    469.02309   -14.825315 
   16300    500.23935   -15.434587 
   16400    502.30438   -15.366857 
   16500    468.59166   -14.482917 
   16600    474.03493   -14.374437 
   16700     508.4867   -14.792945 
   16800    488.70349   -13.985659 
   16900    539.59992   -14.761498 
   17000    510.18124   -13.837167 
   17100    535.86637    -14.22179 
   17200    498.98801   -13.308852 
   17300    498.60773    -13.23463 
   17400    507.74931   -13.380829 
   17500    484.09279   -12.813623 
   17600    481.02326   -12.702667 
   17700    481.50669   -12.659831 
   17800    547.34634   -14.049612 
   17900    543.29022   -13.951716 
   18000     510.0197   -13.271669 
   18100    522.08091   -13.654724 
   18200    513.48774    -13.69219 
   18300    506.21023   -13.913856 
   18400    455.82302   -13.279929 
   18500    456.58347    -13.74604 
   18600    440.26792   -13.700721 
   18700    437.59895   -13.807737 
   18800    465.94772   -14.497551 
   18900    462.00787   -14.414108 
   19000    451.22719   -14.127313 
   19100    467.98949   -14.373113 
   19200     475.8542   -14.361136 
   19300    462.60572   -13.866326 
   19400    460.37138   -13.594554 
   19500    489.24531   -13.969976 
   19600    480.29007   -13.530422 
   19700    486.97043   -13.481454 
   19800    498.16115   -13.556545 
   19900    507.71386   -13.626202 
   20000    503.80084   -13.436788 
   20100     497.2834    -13.21939 
   20200    482.28045   -12.823039 
   20300    514.24522   -13.459465 
   20400     532.6913   -13.813239 
   20500    506.55094   -13.212853 
   20600    494.51021   -12.947176 
   20700    545.60754   -14.089756 
   20800     529.4098   -13.797805 
   20900    503.08923   -13.341963 
   21000    489.94228   -13.187962 
   21100    501.31256   -13.589015 
   21200    474.31954   -13.160862 
   21300    428.37362   -12.297172 
   21400    457.23528   -13.030945 
   21500    479.54135   -13.586049 
   21600     455.9403   -13.098688 
   21700    451.28599   -12.961969 
   21800    473.74348   -13.317054 
   21900    498.94523    -13.64565 
   22000    499.98012   -13.391477 
   22100    502.41782   -13.115284 
   22200    515.55589    -13.05671 
   22300    533.05751   -13.143367 
   22400    527.25113   -12.804174 
   22500    519.32554   -12.482817 
   22600    509.93132   -12.168601 
   22700    535.28455   -12.646599 
   22800    556.96124   -13.127601 
   22900    544.94194   -13.011848 
   23000    516.32389   -12.632467 
   23100    520.81899   -13.027485 
   23200    511.61647   -13.132893 
   23300    517.33585   -13.569668 
   23400    484.35328   -13.125992 
   23500    481.77979     -13.2674 
   23600    464.69004   -12.996653 
   23700    459.70093    -12.91275 
   23800    461.28251   -12.913414 
   23900    491.94755   -13.518526 
   24000    502.51976   -13.679409 
   24100    500.72117   -13.576274 
   24200     493.8363    -13.36628 
   24300    482.19828   -13.047997 
   24400    477.54366   -12.877558 
   24500      485.503   -12.964231 
   24600    504.20158   -13.302641 
   24700    513.36358   -13.435546 
   24800    487.35061   -12.805462 
   24900    503.41014   -13.105575 
   25000    485.98684     -12.6519 
   25100    486.74482   -12.576462 
   25200    495.43322   -12.656718 
   25300    500.94207    -12.66513 
   25400    495.58887   -12.437625 
   25500    504.57604   -12.532166 
   25600    499.62693   -12.317451 
   25700    506.06561   -12.311168 
   25800    540.29296   -12.810981 
   25900    509.32155   -11.704786 
   26000    513.34306   -11.235107 
   26100    525.86345   -10.928039 
   26200    566.48031   -11.349074 
   26300    560.91793   -10.944669 
   26400    566.38198   -10.953318 
   26500    566.27304   -10.966869 
   26600    576.52829   -11.327793 
   26700    580.85302   -11.690786 
   26800    562.47842   -11.672083 
   26900    505.42529   -10.822508 
   27000    462.88114   -10.186501 
   27100    483.65171   -10.833427 
   27200    503.19592   -11.400565 
   27300    498.70113   -11.413289 
   27400     469.2102   -10.836118 
   27500    509.27759    -11.75876 
   27600     522.6601   -12.092597 
   27700    483.66478   -11.288533 
   27800    485.37267    -11.38099 
   27900    508.46843   -11.934151 
   28000      515.797   -12.158282 
   28100    483.43617   -11.533862 
   28200    470.85211   -11.351832 
   28300    438.26261   -10.686698 
   28400     455.7303   -11.048253 
   28500    472.60053   -11.304468 
   28600    483.76514    -11.32012 
   28700     494.5532   -11.227248 
   28800    508.37741   -11.144837 
   28900    503.17046    -10.65521 
   29000    523.75297    -10.79127 
   29100    547.13452   -11.061232 
   29200    538.84332   -10.729158 
   29300    549.73513    -10.91154 
   29400    533.99688   -10.597217 
   29500    540.47827   -10.842857 
   29600    549.55874   -11.218577 
   29700    532.55509   -11.095061 
   29800    488.87348   -10.419321 
   29900    494.93757   -10.806358 
   30000    482.98883   -10.754853 
   30100     449.0944    -10.14994 
   30200    453.63493   -10.305798 
   30300    452.60332   -10.264201 
   30400    432.02126   -9.7254171 
   30500    482.59013   -10.692593 
   30600    487.82196   -10.648663 
   30700    482.23638   -10.389557 
   30800    472.24671   -10.043801 
   30900    489.63035   -10.315661 
   31000    487.19245   -10.160979 
   31100     478.8436   -9.8869862 
   31200    492.74117   -10.106642 
   31300    514.50324   -10.502921 
   31400     490.9521   -9.9081851 
   31500    477.77721   -9.5342804 
   31600    470.02439   -9.2455475 
   31700    466.73069   -9.0089208 
   31800    492.99342   -9.3809849 
   31900    490.85725   -9.1089841 
   32000    494.86919   -8.9699637 
   32100    500.93858   -8.8759337 
   32200    526.18692   -9.2266308 
   32300    537.95378    -9.330706 
   32400    493.37271   -8.2628053 
   32500    498.39676   -8.3140909 
   32600    487.46575   -8.0164059 
   32700    495.81132   -8.1308371 
   32800    495.96428   -8.0479715 
   32900    513.81493   -8.3591531 
   33000    521.40553   -8.4714179 
   33100    498.48172   -7.9418381 
   33200    493.57977   -7.8137344 
   33300    527.82728   -8.5419794 
   33400    538.15773   -8.7731967 
   33500    523.73167    -8.506401 
   33600    506.38878   -8.2012305 
   33700    495.37635   -8.0220205 
   33800    493.09521   -8.0115649 
   33900    500.42694    -8.197389 
   34000    491.10247   -8.0026114 
   34100    502.03631   -8.2362364 
   34200    495.71474    -8.068374 
   34300    480.16942   -7.6727702 
   34400    480.61049   -7.5980109 
   34500    485.60101   -7.5914873 
   34600    473.52807   -7.1794936 
   34700    504.50074   -7.6667566 
   34800    518.36011   -7.7415785 
   34900    506.04666   -7.2368457 
   35000    525.76194   -7.4277662 
   35100    535.76342   -7.4167641 
   35200    537.65789   -7.2695786 
   35300    534.29879   -7.0644875 
   35400    542.66023   -7.1649287 
   35500    543.33257   -7.1516313 
   35600    562.68837   -7.6467926 
   35700    549.32357   -7.6101699 
   35800    515.45932   -7.3160794 
   35900    492.33818   -7.3313875 
   36000    506.46075    -8.135662 
   36100    492.26238   -8.1940153 
   36200    494.71625   -8.5219651 
   36300    479.48726   -8.4087139 
   36400    479.22938   -8.5665067 
   36500    507.49338   -9.3248858 
   36600    491.39653   -9.1078278 
   36700    465.99367   -8.6609577 
   36800    467.64282   -8.7583095 
   36900    462.58288   -8.6503055 
   37000     477.3603   -8.9327653 
   37100    489.69851   -9.1091816 
   37200    482.54156   -8.8074088 
   37300    477.33914   -8.4975917 
   37400    492.01496   -8.5506944 
   37500    526.99581   -9.0111683 
   37600    518.99885   -8.5305536 
   37700    522.70009   -8.3682093 
   37800    516.23199   -8.0472563 
   37900    514.04297   -7.8646663 
   38000    533.27591   -8.1993436 
   38100    527.65107   -8.0395648 
   38200    548.50971   -8.5279378 
   38300    537.10977   -8.3948121 
   38400    522.51234   -8.2807178 
   38500    509.43882   -8.2710981 
   38600    510.27826   -8.6095835 
   38700    474.44308   -8.1478269 
   38800    441.76315    -7.674812 
   38900    451.00713   -8.0190132 
   39000    453.97091   -8.1279109 
   39100      446.131   -7.9199655 
   39200    437.48705   -7.6234535 
   39300    446.06254   -7.6739438 
   39400    438.05934    -7.349105 
   39500    464.38908   -7.7776734 
   39600    470.18894   -7.7588769 
   39700    472.10509   -7.6624101 
   39800    483.91359   -7.7600586 
   39900    498.02587   -7.8809864 
   40000    519.25139   -8.1659349 
   40100    486.63394   -7.2775067 
   40200    486.36096   -7.1014406 
   40300     473.7038   -6.6259823 
   40400    482.03136   -6.5890527 
   40500    524.65518   -7.2748753 
   40600    535.63161   -7.2810781 
   40700     531.0206   -7.0171504 
   40800    522.38383   -6.7343345 
   40900    522.60435   -6.7088189 
   41000    549.71556   -7.3229826 
   41100    537.95904   -7.1617856 
   41200    523.15097   -7.0105888 
   41300     505.3759   -6.8593487 
   41400    486.22202   -6.7131006 
   41500    484.49212   -6.9515813 
   41600     486.5077   -7.2619674 
   41700     493.5582   -7.6733533 
   41800    476.49123   -7.5285041 
   41900    478.17159   -7.7758643 
   42000    450.57662    -7.318821 
   42100    451.23835   -7.4051253 
   42200    435.80232   -7.0620084 
   42300    454.22764    -7.370908 
   42400    451.96601   -7.1216536 
   42500    490.44441   -7.6537802 
   42600    485.83555   -7.1445506 
   42700    524.89963   -7.5758139 
   42800     537.0408    -7.476268 
   42900    523.80291   -6.9734863 
   43000    530.91046   -7.0386003 
   43100    537.57667   -7.1900267 
   43200    542.83568   -7.3668917 
   43300    529.44584   -7.1686468 
   43400    536.19222    -7.453666 
   43500    535.50775   -7.6220634 
   43600     520.7648   -7.5292808 
   43700    501.52946   -7.3735702 
   43800    493.69806   -7.4494523 
   43900    482.12088   -7.4024968 
   44000    471.25416   -7.3188813 
   44100    490.60716   -7.8574652 
   44200    457.36447   -7.2020046 
   44300    448.42203   -7.0190992 
   44400    478.21352   -7.6172472 
   44500    488.75969   -7.7293666 
   44600    517.64406   -8.2093689 
   44700    496.35926   -7.5732012 
   44800    495.16333   -7.3747381 
   44900    508.32752   -7.4772922 
   45000    532.76859   -7.8168125 
   45100    555.53462   -8.1521188 
   45200    546.92694   -7.8648908 
   45300    538.27732   -7.6625422 
   45400     540.5926   -7.8086843 
   45500     508.4611   -7.3136613 
   45600     486.8884    -7.141448 
   45700    482.98957   -7.4074024 
   45800    455.99881    -7.159913 
   45900    444.86764   -7.1830023 
   46000    452.42484   -7.5096811 
   46100    445.27369   -7.4171111 
   46200    443.46467   -7.3474198 
   46300    453.12504   -7.4393454 
   46400     487.5906   -7.9976335 
   46500    477.53513   -7.5220343 
   46600    462.42257   -6.9016841 
   46700    470.38689   -6.7464727 
   46800    502.96092    -7.129783 
   46900    500.20461   -6.8197481 
   47000    504.37435   -6.7462202 
   47100    521.67439   -7.0254632 
   47200    515.03076   -6.8244888 
   47300    505.31126   -6.5840786 
   47400    500.44885   -6.4622959 
   47500    500.32874   -6.4475209 
   47600     504.1488   -6.5309108 
   47700    511.37793   -6.7021304 
   47800    484.14423   -6.1133152 
   47900    504.61067   -6.5718767 
   48000    531.17357   -7.1818191 
   48100    521.05962   -7.0284866 
   48200    486.89441   -6.3764718 
   48300    493.91255   -6.6423221 
   48400    492.19828   -6.7241737 
   48500    502.21276   -7.0938207 
   48600    515.48313    -7.582789 
   48700    500.82632   -7.5178962 
   48800    482.26699   -7.4049995 
   48900    452.23132   -7.0208872 
   49000    474.33814   -7.7399807 
   49100    459.33005   -7.5959637 
   49200    442.32984   -7.3439287 
   49300    456.55494   -7.7073409 
   49400    451.44922   -7.5679339 
   49500    459.94389   -7.6472277 
   49600    470.90853   -7.6778096 
   49700    469.01328   -7.3055933 
   49800    484.90352   -7.2166337 
   49900    526.69284   -7.6439545 
   50000    520.87221   -7.1397876 
Loop time of 5.6376 on 1 procs for 50000 steps with 172 atoms

Performance: 1532.566 ns/day, 0.016 hours/ns, 8869.019 timesteps/s
81.5% CPU use with 1 MPI tasks x 1 OpenMP threads

MPI task timing breakdown:
Section |  min time  |  avg time  |  max time  |%varavg| %total
---------------------------------------------------------------
Pair    | 3.8945     | 3.8945     | 3.8945     |   0.0 | 69.08
Neigh   | 0.40246    | 0.40246    | 0.40246    |   0.0 |  7.14
Comm    | 0.1917     | 0.1917     | 0.1917     |   0.0 |  3.40
Output  | 0.39109    | 0.39109    | 0.39109    |   0.0 |  6.94
Modify  | 0.64369    | 0.64369    | 0.64369    |   0.0 | 11.42
Other   |            | 0.1142     |            |       |  2.03

Nlocal:    172 ave 172 max 172 min
Histogram: 1 0 0 0 0 0 0 0 0 0
Nghost:    397 ave 397 max 397 min
Histogram: 1 0 0 0 0 0 0 0 0 0
Neighs:    1415 ave 1415 max 1415 min
Histogram: 1 0 0 0 0 0 0 0 0 0

Total # of neighbors = 1415
Ave neighs/atom = 8.22674
Neighbor list builds = 2141
Dangerous builds = 0
Total wall time: 0:00:05
