LAMMPS (17 Nov 2015)
WARNING: OMP_NUM_THREADS environment is not set. (../comm.cpp:90)
  using 1 OpenMP thread(s) per MPI task
# LJ

print           "Seed: ${seed}"
Seed: 13150

units		metal
atom_style	atomic
boundary 	p p p


#read_restart	pol.restart_300_1

lattice 	fcc 5
Lattice spacing in x,y,z = 5 5 5
region          box block 0 10 0 10 0 10 units lattice
create_box	1 box
Created orthogonal box = (0 0 0) to (50 50 50)
  1 by 1 by 1 MPI processor grid

region 		cryst block 3 6 3 6 3 6 units lattice
create_atoms 	1 region cryst
Created 172 atoms

mass		1 12.011

pair_style 	lj/cut 9
pair_coeff 	1 1 0.05 3.0 	#solid at 0.05/liquid at 0.25 at 300 K
pair_modify 	shift yes

velocity 	all create 50.0 ${seed} mom yes rot yes
velocity 	all create 50.0 13150 mom yes rot yes

thermo		100
thermo_style 	custom step temp pe
timestep	0.002
dump		1 all custom 100 first.lammpstrj id type x y z element vx vy vz
dump_modify	1 element C
write_dump	all xyz pos.xyz modify element H
WARNING: Calling write_dump before a full system init. (../write_dump.cpp:81)
restart 	50000 restart1 restart2

fix 		1 all nvt temp 400.0 400.0 1.0
run		50000
Neighbor list info ...
  1 neighbor list requests
  update every 1 steps, delay 10 steps, check yes
  max neighbors/atom: 2000, page size: 100000
  master list distance cutoff = 11
  ghost atom cutoff = 11
  binsize = 5.5 -> bins = 10 10 10
Memory usage per processor = 3.75797 Mbytes
Step Temp PotEng 
       0           50   -41.803497 
     100    166.67704   -44.271183 
     200     154.6942   -43.760746 
     300     144.2725   -43.349298 
     400    159.86992   -43.448225 
     500    126.72098   -42.466195 
     600    173.66865   -43.240463 
     700    180.96993   -43.050362 
     800    147.82434   -42.009102 
     900    194.32254   -42.684004 
    1000    188.00648   -42.148069 
    1100    185.89819   -41.730338 
    1200    202.29239   -41.669001 
    1300    194.36476   -41.074674 
    1400    208.50147   -40.939648 
    1500    208.28651   -40.486113 
    1600    228.66943   -40.465352 
    1700    258.75433    -40.60972 
    1800     249.2712   -39.880208 
    1900    264.91624   -39.695576 
    2000    262.71888   -39.125071 
    2100    265.33886   -38.655346 
    2200    284.46053   -38.523104 
    2300    267.00481   -37.581087 
    2400    271.57814   -37.146223 
    2500    302.51499   -37.224618 
    2600    270.78745   -35.962525 
    2700    283.55901   -35.711562 
    2800    288.43388   -35.243656 
    2900    332.38209   -35.621645 
    3000    333.47242   -35.045277 
    3100    321.58674   -34.218075 
    3200    324.99873   -33.717966 
    3300    310.37859   -32.825577 
    3400    344.97517   -33.010565 
    3500    355.93048   -32.686587 
    3600    327.76545   -31.510811 
    3700    357.13253   -31.614864 
    3800    354.28735   -30.992443 
    3900    386.81593   -31.167979 
    4000    411.12162   -31.164669 
    4100    381.42465   -30.034622 
    4200    396.57243   -29.928653 
    4300     404.0277   -29.649062 
    4400    408.17124   -29.322878 
    4500    404.81624   -28.855873 
    4600    423.61337   -28.888335 
    4700    423.08216   -28.532925 
    4800    397.52177   -27.680536 
    4900    412.10103    -27.73664 
    5000    436.59948   -28.039594 
    5100    430.12558   -27.717636 
    5200    483.29155   -28.796693 
    5300    418.75551   -27.372253 
    5400    381.05923   -26.591982 
    5500    384.91692   -26.720367 
    5600    395.38529   -26.958388 
    5700    418.25432   -27.466697 
    5800    404.94486   -27.192911 
    5900    389.04226   -26.878582 
    6000    363.44974   -26.342811 
    6100    352.41284   -26.085639 
    6200    380.55302    -26.63291 
    6300    418.92821   -27.382986 
    6400    380.75323   -26.452862 
    6500    399.44014   -26.767793 
    6600    421.43281   -27.135398 
    6700    420.13021   -27.006419 
    6800    438.75186   -27.348256 
    6900    405.03957   -26.572729 
    7000    437.78747   -27.305223 
    7100    398.31083   -26.478949 
    7200    369.79505   -25.914001 
    7300    403.09188    -26.69098 
    7400    383.65398   -26.284412 
    7500    386.26491   -26.335335 
    7600    390.68199   -26.389958 
    7700     402.2419   -26.562762 
    7800    410.23727    -26.64761 
    7900     395.5497   -26.233988 
    8000    395.00483    -26.12955 
    8100    404.10204   -26.236167 
    8200    400.20831   -26.084159 
    8300    380.91652   -25.607156 
    8400    412.55759   -26.242568 
    8500    431.34791   -26.610643 
    8600    425.74551   -26.469519 
    8700    395.06089   -25.806724 
    8800    407.69843   -26.097414 
    8900    420.84537   -26.414233 
    9000    390.33981    -25.79132 
    9100    449.58359   -27.164357 
    9200    432.42693   -26.889525 
    9300    419.28644   -26.759983 
    9400    334.32455   -25.025235 
    9500    352.79388   -25.486021 
    9600    389.96035   -26.280726 
    9700    387.79938   -26.169515 
    9800    404.45834   -26.447288 
    9900    370.88372    -25.60149 
   10000    370.05762   -25.464106 
   10100    388.89985   -25.708756 
   10200     391.6617   -25.553898 
   10300    380.41514   -25.079768 
   10400    405.84452   -25.383513 
   10500    388.31767   -24.745285 
   10600    433.11598   -25.484168 
   10700    448.54485   -25.612199 
   10800    462.90904   -25.806394 
   10900    405.85179   -24.526192 
   11000    417.48786   -24.808269 
   11100    459.16582   -25.812715 
   11200    411.24274   -24.918265 
   11300    416.14426   -25.242035 
   11400    413.77077   -25.421456 
   11500    403.34218   -25.428231 
   11600     405.2823   -25.727038 
   11700    419.39411   -26.288189 
   11800    408.29612   -26.285499 
   11900    395.92603   -26.235351 
   12000      414.481   -26.845815 
   12100    390.38409   -26.501132 
   12200    380.57819   -26.446913 
   12300    357.84694   -26.061094 
   12400     333.8344   -25.576404 
   12500    354.48442   -25.997699 
   12600    351.57708   -25.829957 
   12700    396.77269   -26.661453 
   12800    367.01233   -25.792468 
   12900    405.32741   -26.387805 
   13000    397.36218   -25.942722 
   13100    418.28024   -26.162781 
   13200    386.19382   -25.264683 
   13300    398.51924   -25.366698 
   13400    415.27501   -25.576659 
   13500    403.20202   -25.168846 
   13600    427.85189   -25.585111 
   13700     442.1734   -25.816519 
   13800    424.30521   -25.413587 
   13900     393.5812   -24.801815 
   14000    376.60588   -24.492906 
   14100    409.32606   -25.283038 
   14200    399.30225   -25.147773 
   14300    405.24075   -25.383596 
   14400    405.60816   -25.551568 
   14500    381.00676   -25.232381 
   14600    422.39867   -26.401727 
   14700    388.43381   -25.958452 
   14800    334.44838   -25.066972 
   14900    347.88385   -25.571331 
   15000    346.67637   -25.655374 
   15100    367.05676   -26.151513 
   15200    349.28448   -25.750739 
   15300    356.39247   -25.836642 
   15400    369.80298   -26.006219 
   15500    382.65624   -26.147307 
   15600    383.67296   -26.035058 
   15700    379.12649   -25.823274 
   15800     380.8541   -25.739944 
   15900    413.17544   -26.349726 
   16000    413.18042   -26.297849 
   16100    382.93731   -25.599333 
   16200    383.21436   -25.555365 
   16300    390.26367   -25.646503 
   16400    378.55885   -25.303797 
   16500    413.97664    -25.98199 
   16600    438.17348   -26.411441 
   16700     385.2188   -25.176703 
   16800    390.16321   -25.239168 
   16900    415.30452   -25.752237 
   17000    387.46406   -25.097689 
   17100    401.74557   -25.360975 
   17200    402.51759   -25.308272 
   17300    402.32264   -25.240784 
   17400     449.8801   -26.233517 
   17500    438.85958   -25.957893 
   17600    413.15335    -25.39025 
   17700    415.57468   -25.467763 
   17800    408.70274    -25.41048 
   17900     376.3354     -24.8102 
   18000    406.37579   -25.586325 
   18100    413.64287   -25.878658 
   18200    416.17013   -26.118026 
   18300    381.13116   -25.551771 
   18400    380.37298   -25.721442 
   18500    405.90395   -26.475905 
   18600     379.0661   -26.064894 
   18700    384.59822   -26.337417 
   18800    397.37794   -26.762583 
   18900    421.83826    -27.43137 
   19000    401.97775    -27.11934 
   19100    382.25845   -26.807497 
   19200     339.7282   -25.944438 
   19300    349.52806   -26.167721 
   19400    386.50017    -26.91839 
   19500    374.85504   -26.529122 
   19600     378.8113   -26.406794 
   19700    363.98283    -25.78614 
   19800    418.38152   -26.640286 
   19900     387.3177   -25.630067 
   20000    427.08208    -26.24845 
   20100     418.4913    -25.88879 
   20200     379.1308   -24.914665 
   20300    407.30136   -25.452912 
   20400    409.80814   -25.453272 
   20500    380.16158   -24.770955 
   20600    393.74105   -25.033383 
   20700    410.16457   -25.340414 
   20800    402.09384   -25.123246 
   20900    393.81548   -24.906939 
   21000     399.0225   -24.954301 
   21100    406.59318   -25.028044 
   21200    408.29016   -24.962321 
   21300    413.29163   -24.969653 
   21400    429.15587   -25.217712 
   21500    409.98574   -24.698528 
   21600    387.18325   -24.097999 
   21700    382.08065   -23.841961 
   21800    392.28153   -23.862981 
   21900    399.95932   -23.772552 
   22000    377.37746   -22.973011 
   22100    419.84019   -23.575937 
   22200    426.53158   -23.424499 
   22300    415.19217   -22.964257 
   22400     420.4496    -22.97231 
   22500    424.78835   -23.037761 
   22600    432.45455   -23.232099 
   22700    462.52431   -23.981617 
   22800    462.51839    -24.14912 
   22900    403.97005   -23.040359 
   23000    434.79957   -23.893021 
   23100    418.53639   -23.712088 
   23200    379.82816   -22.986365 
   23300    411.70924   -23.783676 
   23400    426.59771   -24.205881 
   23500    431.10409   -24.412239 
   23600    403.63897   -23.941822 
   23700    375.98416   -23.447085 
   23800    401.65776   -24.084386 
   23900    408.83362   -24.302108 
   24000    382.85499   -23.783188 
   24100     383.9818   -23.815214 
   24200    414.84655   -24.472534 
   24300    390.57363   -23.912671 
   24400    393.99415   -23.947543 
   24500    401.13158   -24.040532 
   24600    399.80735   -23.944166 
   24700    390.75388   -23.688114 
   24800    395.71607   -23.727685 
   24900    382.40622   -23.318817 
   25000    409.14299   -23.701271 
   25100     438.0262   -23.992689 
   25200    412.24624   -22.988039 
   25300    424.53078   -22.835509 
   25400    454.91591   -23.158589 
   25500    440.09911   -22.628718 
   25600    422.31521   -22.149151 
   25700    467.79214   -23.143999 
   25800    425.01714    -22.26975 
   25900    431.84613   -22.540038 
   26000     442.0129   -22.912952 
   26100      426.957    -22.77583 
   26200    411.11824   -22.619241 
   26300     454.7562   -23.789103 
   26400    412.44709   -23.088375 
   26500    400.45933   -23.031677 
   26600    359.14402   -22.273513 
   26700    388.69891   -23.016848 
   26800     395.7918   -23.231952 
   26900    382.07234   -22.986589 
   27000    373.42337   -22.833063 
   27100    384.64093   -23.092947 
   27200    381.88798   -23.021589 
   27300    380.40742   -22.959198 
   27400    358.22621   -22.402909 
   27500    364.11523   -22.397046 
   27600     381.7935   -22.593561 
   27700    375.05559   -22.232622 
   27800    421.92229   -23.021683 
   27900    406.94136   -22.469779 
   28000    390.87893   -21.938307 
   28100    408.31148   -22.174349 
   28200    406.53773   -22.040652 
   28300    379.44711   -21.377717 
   28400    391.83027   -21.590686 
   28500     424.0658   -22.256673 
   28600      401.061   -21.727638 
   28700    434.27622   -22.452931 
   28800    452.77461   -22.904092 
   28900    426.13691   -22.434802 
   29000    406.67562     -22.1333 
   29100    410.20904   -22.337231 
   29200    407.50126   -22.406903 
   29300     397.2543   -22.305255 
   29400    405.58108   -22.578321 
   29500     414.5578   -22.865083 
   29600    384.58644   -22.286907 
   29700    376.98613   -22.182016 
   29800    372.40309   -22.104505 
   29900    391.72771   -22.511713 
   30000       384.66   -22.308369 
   30100    352.97954   -21.542445 
   30200    370.61148   -21.805777 
   30300    407.29746   -22.382161 
   30400    390.80206   -21.686437 
   30500    378.59928   -21.047884 
   30600    409.66938   -21.317398 
   30700    426.77434   -21.354508 
   30800    437.43522    -21.41517 
   30900    418.95496   -20.973098 
   31000    420.65147   -21.048392 
   31100    425.36481   -21.204927 
   31200    418.79249   -21.129125 
   31300    444.23504   -21.787676 
   31400    451.37843   -22.129116 
   31500    394.58521   -21.127692 
   31600    406.47312    -21.63832 
   31700    369.98693    -21.02985 
   31800    389.72012   -21.628674 
   31900    366.91774   -21.237839 
   32000    355.56435    -21.02902 
   32100    383.44508   -21.618022 
   32200    375.24187   -21.372125 
   32300    361.15662    -20.96218 
   32400    402.21053   -21.718245 
   32500    393.04646   -21.337716 
   32600    419.02053   -21.698648 
   32700    392.86959   -20.904725 
   32800    413.94998   -21.174674 
   32900    405.13527   -20.814311 
   33000    403.23664   -20.623722 
   33100    398.53706   -20.380099 
   33200    438.06753   -21.147562 
   33300    454.53566   -21.495129 
   33400    416.75323   -20.736876 
   33500    400.18585   -20.500656 
   33600    389.04328   -20.387014 
   33700    359.60723   -19.841839 
   33800    398.99036   -20.755674 
   33900    430.94836   -21.496603 
   34000    429.01218    -21.51196 
   34100    401.54795   -20.956557 
   34200     412.3295   -21.219529 
   34300    398.82124   -20.951555 
   34400    386.39424   -20.700969 
   34500    385.87324   -20.684251 
   34600     393.3332    -20.82414 
   34700    396.08391   -20.848012 
   34800    391.63697   -20.700413 
   34900    379.62073   -20.369026 
   35000    397.17158    -20.66344 
   35100    431.68354   -21.324366 
   35200    417.49584   -20.947856 
   35300    393.23527   -20.390889 
   35400    390.00081   -20.293174 
   35500    388.87416   -20.203572 
   35600    397.71084   -20.296448 
   35700    382.70133   -19.817438 
   35800    444.36048    -20.99293 
   35900     446.9019   -20.855327 
   36000    430.82771   -20.341845 
   36100    435.11246   -20.330387 
   36200    445.49597   -20.487987 
   36300    424.50281   -19.982369 
   36400    418.99171    -19.84198 
   36500    431.44079   -20.150985 
   36600    419.98389   -20.023967 
   36700     430.6906    -20.45854 
   36800    431.80674   -20.747895 
   36900    386.46191   -20.054137 
   37000    396.36047   -20.570265 
   37100    413.16387   -21.193589 
   37200    421.63616   -21.608524 
   37300     406.4292   -21.484221 
   37400    370.25577   -20.842052 
   37500    400.34869   -21.601722 
   37600    411.58147   -21.924626 
   37700    396.62003   -21.665452 
   37800    387.91453   -21.537572 
   37900    374.78418    -21.28042 
   38000    396.67779   -21.761338 
   38100    397.51516   -21.755269 
   38200    404.96582   -21.876744 
   38300    391.64348   -21.524919 
   38400    362.02313   -20.786141 
   38500    398.92979    -21.45187 
   38600    421.72122   -21.745578 
   38700    397.09306   -20.951434 
   38800    396.63025   -20.640758 
   38900     406.0399   -20.493552 
   39000    409.73225   -20.238723 
   39100    446.32112   -20.794656 
   39200    450.63236   -20.742315 
   39300    428.30387   -20.203283 
   39400    431.53826    -20.29235 
   39500    426.67511   -20.243676 
   39600    402.00645   -19.787851 
   39700    396.28126    -19.76984 
   39800    375.40674   -19.393244 
   39900    405.08722   -20.082817 
   40000    424.92782   -20.553729 
   40100    408.62115   -20.241622 
   40200    424.00412   -20.638131 
   40300    397.61911   -20.140924 
   40400     391.9025   -20.100243 
   40500     414.4535   -20.675794 
   40600    417.62967   -20.836472 
   40700    407.50942   -20.713235 
   40800    380.40684   -20.191768 
   40900    386.41374   -20.369301 
   41000    381.09703   -20.289843 
   41100    389.12695   -20.490247 
   41200    385.17046   -20.401408 
   41300    390.80409   -20.497637 
   41400    388.34382   -20.393451 
   41500    387.97432   -20.302208 
   41600    432.57606   -21.125729 
   41700    454.39691   -21.377343 
   41800    433.44903   -20.657564 
   41900    412.13724   -19.922692 
   42000    410.89566   -19.646598 
   42100    447.97048   -20.259411 
   42200    410.25871   -19.278401 
   42300    442.46467   -19.881503 
   42400    407.10523   -19.057136 
   42500    416.98062   -19.280505 
   42600     424.2534    -19.47727 
   42700    463.10587   -20.420425 
   42800    456.93235   -20.495226 
   42900    420.51092   -20.008232 
   43000    434.68809   -20.671916 
   43100     421.3942   -20.734222 
   43200    415.16055   -20.910483 
   43300     411.6277   -21.077572 
   43400    408.70151   -21.186523 
   43500    398.40148   -21.102685 
   43600    399.07186   -21.238056 
   43700    386.81195   -21.058558 
   43800    426.58592    -22.00797 
   43900    406.92015   -21.666153 
   44000    389.89224   -21.400983 
   44100     411.9564   -21.997007 
   44200     412.5819   -22.123646 
   44300    391.90409   -21.800891 
   44400    392.31335   -21.931359 
   44500    389.44296    -21.96011 
   44600    390.61613   -22.045156 
   44700    389.19136   -22.059219 
   44800    373.20037   -21.729425 
   44900     392.0881   -22.146107 
   45000    360.90106   -21.429298 
   45100     356.3206   -21.248294 
   45200    400.08501   -22.052798 
   45300     397.6796   -21.740437 
   45400    419.53569   -21.904831 
   45500    420.70341   -21.601113 
   45600    409.09026    -21.05172 
   45700    413.00384   -20.912438 
   45800    384.31763   -20.136267 
   45900    397.42869   -20.294371 
   46000    406.46392   -20.367144 
   46100    417.03957   -20.496456 
   46200    449.26736   -21.157878 
   46300     446.1324   -21.103002 
   46400     455.0777   -21.412072 
   46500    449.54679   -21.506102 
   46600    431.84628   -21.375241 
   46700    417.07201   -21.325011 
   46800    391.80337   -20.998797 
   46900    370.97324    -20.67122 
   47000    360.14359   -20.478827 
   47100    374.87098    -20.79704 
   47200     426.2052   -21.917297 
   47300    376.50963   -20.836782 
   47400    399.70555   -21.336394 
   47500     383.1855   -20.934483 
   47600    373.52734   -20.681679 
   47700    395.07406   -21.103293 
   47800    373.81481   -20.546907 
   47900    371.78055    -20.37416 
   48000    385.56942    -20.50885 
   48100    433.50581   -21.398033 
   48200    415.12615    -20.88952 
   48300    414.34937   -20.825888 
   48400    434.42546   -21.246507 
   48500    422.45543   -21.003305 
   48600    427.56401   -21.187076 
   48700    400.86875   -20.749667 
   48800    418.50997   -21.393164 
   48900    399.79389    -21.39461 
   49000    364.15181   -21.087451 
   49100    373.12148    -21.64268 
   49200    372.17974    -21.82188 
   49300    384.96076   -22.191194 
   49400    359.90788    -21.65424 
   49500    338.70148   -21.141164 
   49600    372.11423    -21.76838 
   49700    391.63916   -22.037203 
   49800    384.09573   -21.693408 
   49900    383.63314   -21.506523 
   50000    369.24857   -20.999768 
Loop time of 8.50469 on 1 procs for 50000 steps with 172 atoms

Performance: 1015.911 ns/day, 0.024 hours/ns, 5879.112 timesteps/s
82.1% CPU use with 1 MPI tasks x 1 OpenMP threads

MPI task timing breakdown:
Section |  min time  |  avg time  |  max time  |%varavg| %total
---------------------------------------------------------------
Pair    | 6.728      | 6.728      | 6.728      |   0.0 | 79.11
Neigh   | 0.42702    | 0.42702    | 0.42702    |   0.0 |  5.02
Comm    | 0.14109    | 0.14109    | 0.14109    |   0.0 |  1.66
Output  | 0.42578    | 0.42578    | 0.42578    |   0.0 |  5.01
Modify  | 0.65484    | 0.65484    | 0.65484    |   0.0 |  7.70
Other   |            | 0.1279     |            |       |  1.50

Nlocal:    172 ave 172 max 172 min
Histogram: 1 0 0 0 0 0 0 0 0 0
Nghost:    224 ave 224 max 224 min
Histogram: 1 0 0 0 0 0 0 0 0 0
Neighs:    4051 ave 4051 max 4051 min
Histogram: 1 0 0 0 0 0 0 0 0 0

Total # of neighbors = 4051
Ave neighs/atom = 23.5523
Neighbor list builds = 1813
Dangerous builds = 0
Total wall time: 0:00:08
