LAMMPS (17 Nov 2015)
WARNING: OMP_NUM_THREADS environment is not set. (../comm.cpp:90)
  using 1 OpenMP thread(s) per MPI task
# LJ

print           "Seed: ${seed}"
Seed: 31288

units		metal
atom_style	atomic
boundary 	p p p


#read_restart	pol.restart_300_1

lattice 	fcc 5
Lattice spacing in x,y,z = 5 5 5
region          box block 0 10 0 10 0 10 units lattice
create_box	1 box
Created orthogonal box = (0 0 0) to (50 50 50)
  1 by 1 by 1 MPI processor grid

region 		cryst block 3 6 3 6 3 6 units lattice
create_atoms 	1 region cryst
Created 172 atoms

mass		1 12.011

pair_style 	lj/cut 9
pair_coeff 	1 1 0.05 3.0 	#solid at 0.05/liquid at 0.25 at 300 K
pair_modify 	shift yes

velocity 	all create 50.0 ${seed} mom yes rot yes
velocity 	all create 50.0 31288 mom yes rot yes

thermo		100
thermo_style 	custom step temp pe
timestep	0.002
dump		1 all custom 100 first.lammpstrj id type x y z element vx vy vz
dump_modify	1 element C
write_dump	all xyz pos.xyz modify element H
WARNING: Calling write_dump before a full system init. (../write_dump.cpp:81)
restart 	50000 restart1 restart2

fix 		1 all nvt temp 150.0 150.0 1.0
run		50000
Neighbor list info ...
  1 neighbor list requests
  update every 1 steps, delay 10 steps, check yes
  max neighbors/atom: 2000, page size: 100000
  master list distance cutoff = 11
  ghost atom cutoff = 11
  binsize = 5.5 -> bins = 10 10 10
Memory usage per processor = 3.75797 Mbytes
Step Temp PotEng 
       0           50   -41.803497 
     100     160.8724   -44.225176 
     200    134.90937    -43.65084 
     300    130.52451   -43.535637 
     400    145.54674   -43.802721 
     500    110.21909   -42.959174 
     600    159.00233   -43.935841 
     700    158.61978   -43.802485 
     800    131.82758   -43.117937 
     900    161.49912   -43.678052 
    1000     114.5287   -42.583036 
    1100    148.97089   -43.295235 
    1200     147.7391    -43.22517 
    1300    143.82135   -43.107293 
    1400    153.47103     -43.2873 
    1500    146.74473   -43.110596 
    1600    140.69596   -42.948537 
    1700    163.88155    -43.44054 
    1800     144.3639   -43.000609 
    1900    167.30026   -43.500046 
    2000    150.59953   -43.140895 
    2100    165.04771     -43.4804 
    2200    163.06031    -43.47835 
    2300    145.19746   -43.141533 
    2400    151.98648   -43.367108 
    2500    158.66814   -43.609968 
    2600    157.16727   -43.693764 
    2700    153.18572   -43.727548 
    2800    152.30898   -43.810854 
    2900     146.5656   -43.768044 
    3000    162.39181   -44.176778 
    3100    154.94248   -44.061006 
    3200    166.16568   -44.352916 
    3300    157.75612   -44.229657 
    3400    155.21061   -44.231821 
    3500    166.87135   -44.549283 
    3600    162.46918   -44.519113 
    3700    156.42566   -44.452476 
    3800    160.14965   -44.598842 
    3900     162.2634   -44.705452 
    4000     149.8164   -44.495308 
    4100     134.6498   -44.215299 
    4200    157.97861   -44.772208 
    4300    130.82545   -44.209558 
    4400    163.95014   -44.970313 
    4500    154.45043   -44.789913 
    4600    145.50249   -44.613111 
    4700    141.24663   -44.536535 
    4800     134.7491   -44.405677 
    4900     142.4897    -44.58193 
    5000    140.95837   -44.551556 
    5100    155.88712   -44.875292 
    5200    136.11546   -44.425494 
    5300    158.80083   -44.895581 
    5400    143.81511   -44.522085 
    5500    137.30499   -44.322489 
    5600    162.36405   -44.795595 
    5700    144.95773   -44.333678 
    5800    155.23584    -44.47308 
    5900    150.04042   -44.269372 
    6000    163.89145   -44.504779 
    6100    160.35047   -44.371587 
    6200    155.93129    -44.22271 
    6300    148.84549   -44.009806 
    6400    157.97482   -44.170827 
    6500    166.91086   -44.348044 
    6600    159.71839   -44.196679 
    6700    155.39499   -44.124447 
    6800    172.69025    -44.55429 
    6900    154.33001   -44.221824 
    7000    157.71796    -44.39102 
    7100    153.41323   -44.410952 
    7200    143.95806   -44.320954 
    7300    138.63763   -44.302595 
    7400     154.5591   -44.726373 
    7500    151.43085    -44.70913 
    7600    150.00392   -44.709176 
    7700    156.63806   -44.881077 
    7800    154.59659   -44.852878 
    7900    152.21291   -44.809623 
    8000    148.63543   -44.738752 
    8100    152.02666   -44.815264 
    8200    153.30678   -44.841097 
    8300    138.52251   -44.511621 
    8400    162.54714    -45.03334 
    8500    145.53136   -44.655444 
    8600    143.32214   -44.595225 
    8700    149.20279   -44.707472 
    8800      146.329   -44.619032 
    8900    147.27916   -44.604655 
    9000    144.39018   -44.492398 
    9100    137.66791   -44.275636 
    9200    151.86109   -44.486207 
    9300    161.54647   -44.581454 
    9400    142.87391   -44.055813 
    9500    145.09475   -44.007263 
    9600    177.66123   -44.645621 
    9700    157.12023    -44.14449 
    9800    161.10987   -44.206472 
    9900    162.50703   -44.233223 
   10000    160.53331   -44.207097 
   10100    157.38423   -44.179423 
   10200    141.17681   -43.885809 
   10300     161.1651   -44.416377 
   10400    151.88018   -44.319867 
   10500    162.40059    -44.65504 
   10600    153.69828   -44.560669 
   10700    149.01989   -44.529699 
   10800    149.75882   -44.592488 
   10900    149.77637   -44.629839 
   11000    150.46248   -44.672923 
   11100    157.37084   -44.855994 
   11200    149.26927   -44.708186 
   11300    144.76435   -44.636758 
   11400    158.06942   -44.953807 
   11500    145.75302   -44.702033 
   11600    149.41587   -44.797575 
   11700    159.31437   -45.031462 
   11800    135.45374   -44.521016 
   11900    169.56042   -45.296346 
   12000    150.69663   -44.908425 
   12100     147.4527   -44.867417 
   12200    145.71756   -44.866276 
   12300    157.77002   -45.166447 
   12400    143.62037   -44.899155 
   12500    140.20234    -44.87412 
   12600    132.66827   -44.764048 
   12700    140.34283   -44.992252 
   12800    153.67909   -45.351378 
   12900     144.2371   -45.207975 
   13000    139.62387   -45.165417 
   13100    130.40988   -45.014911 
   13200    143.52817    -45.34563 
   13300     144.9975    -45.40853 
   13400    131.62829   -45.129707 
   13500      141.444   -45.338261 
   13600    135.00755   -45.163749 
   13700    150.76908   -45.446211 
   13800    147.89264   -45.273154 
   13900    129.14873   -44.728801 
   14000    141.41461   -44.864435 
   14100    147.04996   -44.870945 
   14200      152.805   -44.918572 
   14300    145.32448    -44.69362 
   14400    146.60133   -44.680168 
   14500    162.87464     -45.0086 
   14600    160.51441    -44.93642 
   14700    172.27215   -45.181741 
   14800    158.85571   -44.876489 
   14900    155.88703   -44.805976 
   15000    145.03648   -44.567228 
   15100    147.82791   -44.640358 
   15200    151.19494   -44.725598 
   15300    149.03751   -44.698002 
   15400    153.97385    -44.82519 
   15500    163.67341   -45.067644 
   15600    146.77557   -44.730609 
   15700     155.0824   -44.957718 
   15800    142.86994   -44.745154 
   15900     146.0264    -44.87531 
   16000    137.76935   -44.767568 
   16100     143.7869   -44.973272 
   16200     145.0039   -45.069386 
   16300    129.34566   -44.779181 
   16400    138.44148   -45.015481 
   16500    121.34341   -44.658943 
   16600    133.95695   -44.930614 
   16700    143.98889   -45.121936 
   16800    137.78459   -44.936204 
   16900    129.68072   -44.673297 
   17000    147.19282   -44.939967 
   17100    133.25969   -44.494121 
   17200     133.8744   -44.379954 
   17300    163.97554   -44.944697 
   17400    149.35703   -44.554737 
   17500    159.05742   -44.731462 
   17600    170.79337    -44.96392 
   17700    139.32614   -44.261261 
   17800    156.13601   -44.633426 
   17900    157.43016   -44.676549 
   18000    153.82642   -44.621273 
   18100    156.74376   -44.717606 
   18200    153.41417   -44.687204 
   18300    159.50686   -44.876241 
   18400    150.76811   -44.742643 
   18500    142.79891   -44.634465 
   18600    147.51807   -44.808294 
   18700    152.61709    -44.99738 
   18800    135.30501   -44.679037 
   18900    161.58768   -45.311816 
   19000    141.17387   -44.913795 
   19100    150.63279   -45.155693 
   19200     137.1373   -44.885971 
   19300    144.86569    -45.06984 
   19400    150.65235   -45.194777 
   19500     141.0889   -44.969955 
   19600    131.26109   -44.710588 
   19700    143.31225   -44.885947 
   19800    154.41649   -44.983709 
   19900      156.143    -44.85816 
   20000    157.54202     -44.7471 
   20100    149.61025   -44.470392 
   20200    159.96308   -44.632528 
   20300     151.5971   -44.410432 
   20400    154.71613   -44.456565 
   20500    155.73998   -44.475743 
   20600    155.26088   -44.474953 
   20700    157.59504   -44.563701 
   20800    159.30681   -44.650729 
   20900     158.1199   -44.697695 
   21000    151.90765   -44.645757 
   21100    166.40526   -45.058033 
   21200    144.89074   -44.677825 
   21300    147.35063   -44.818795 
   21400    149.88411   -44.944448 
   21500    145.42459   -44.900382 
   21600     145.0588   -44.933794 
   21700    145.45484   -44.975085 
   21800    151.13948   -45.122761 
   21900    154.18045   -45.200762 
   22000    138.38414   -44.859027 
   22100     149.1429    -45.09102 
   22200    142.93628   -44.945829 
   22300    155.67401   -45.212616 
   22400    141.87353   -44.881552 
   22500    149.48023   -45.015053 
   22600     158.1475   -45.157571 
   22700    144.92972   -44.812095 
   22800     156.6076   -44.996881 
   22900    134.55682   -44.403907 
   23000    153.78934   -44.685917 
   23100    160.97349   -44.683348 
   23200    141.22698    -44.10681 
   23300    176.16444   -44.787267 
   23400    178.47734   -44.794123 
   23500    145.61839   -44.059854 
   23600    171.60874   -44.637218 
   23700    166.32464   -44.551224 
   23800    161.44589   -44.487782 
   23900    152.57438   -44.350651 
   24000    160.57699   -44.598663 
   24100    154.22791   -44.545569 
   24200    166.01129   -44.885586 
   24300    160.00231   -44.843837 
   24400    158.49491   -44.881204 
   24500     162.9108   -45.041618 
   24600    145.80618   -44.724009 
   24700    155.11818   -44.983322 
   24800    150.66433    -44.93337 
   24900    145.81423   -44.870901 
   25000    146.43641   -44.926468 
   25100    151.47989   -45.075958 
   25200    160.95358   -45.313587 
   25300    146.73978   -45.029903 
   25400     142.2827   -44.960329 
   25500    146.97475   -45.083197 
   25600    146.15968   -45.080859 
   25700    146.36692   -45.092282 
   25800     144.2169   -45.047231 
   25900    138.06405    -44.90564 
   26000    143.83014   -45.014393 
   26100    149.43006   -45.107424 
   26200    153.91486   -45.154476 
   26300    141.95281   -44.806943 
   26400    153.68513   -44.954354 
   26500    156.69401   -44.898876 
   26600    154.57225   -44.739061 
   26700    158.83126   -44.739762 
   26800    151.40543   -44.503334 
   26900    160.94939   -44.663372 
   27000    142.93885   -44.239283 
   27100    158.64095   -44.571578 
   27200    160.17645   -44.603501 
   27300    154.72393   -44.505685 
   27400    160.75186   -44.674444 
   27500      157.925   -44.665737 
   27600    179.86049   -45.216428 
   27700    148.92585   -44.630343 
   27800    158.03368   -44.938226 
   27900    146.11428   -44.790027 
   28000    157.79314   -45.147701 
   28100     154.3314   -45.144826 
   28200    130.81014   -44.676859 
   28300    140.36716   -44.917653 
   28400    130.32768   -44.714472 
   28500    148.11355   -45.114279 
   28600    145.37161   -45.058421 
   28700    145.52047   -45.058168 
   28800    156.40527   -45.284693 
   28900    146.56543   -45.053353 
   29000    136.32046   -44.808021 
   29100    154.53253   -45.185422 
   29200    140.65411   -44.847926 
   29300    142.21735   -44.838533 
   29400    149.64528   -44.938212 
   29500    148.85736   -44.847081 
   29600    159.57462   -44.999802 
   29700    155.64001   -44.824335 
   29800    153.13277   -44.684707 
   29900    156.40894   -44.673442 
   30000    151.20473   -44.479781 
   30100    152.46055   -44.434836 
   30200    153.08842   -44.394271 
   30300    161.61208   -44.542534 
   30400    166.65937   -44.629047 
   30500    165.74293   -44.606347 
   30600    170.66701   -44.745086 
   30700    162.64759   -44.654713 
   30800    164.87167   -44.871627 
   30900    155.56691   -44.885976 
   31000    151.69129   -44.982627 
   31100    157.43394   -45.219614 
   31200    147.33334   -45.070804 
   31300     134.5223   -44.842609 
   31400    140.84803   -45.021413 
   31500    146.02685   -45.165325 
   31600     149.7711    -45.26523 
   31700    145.30083   -45.180653 
   31800    142.60384   -45.122154 
   31900     142.6729    -45.11638 
   32000    154.76888   -45.369995 
   32100    142.69522   -45.083107 
   32200     138.7643   -44.966622 
   32300    147.53683   -45.116433 
   32400    140.13502   -44.904336 
   32500    154.94315   -45.168739 
   32600    144.74792   -44.877401 
   32700    157.90448   -45.094728 
   32800    153.58607   -44.924328 
   32900    151.79795   -44.811172 
   33000    153.74213   -44.791879 
   33100    161.93612   -44.917024 
   33200    156.81497     -44.7552 
   33300    161.54259   -44.817179 
   33400    152.42692   -44.573366 
   33500    158.80655   -44.678699 
   33600    166.92543   -44.832656 
   33700    154.73118   -44.551689 
   33800     157.6492   -44.613963 
   33900    164.59697   -44.769517 
   34000    161.86552   -44.734138 
   34100    150.20664   -44.539949 
   34200    152.63959   -44.706971 
   34300     159.1376   -44.992982 
   34400    155.51868      -45.064 
   34500    149.62578   -45.052255 
   34600    140.76723     -44.9458 
   34700    132.95545    -44.83159 
   34800    147.56532   -45.184578 
   34900    145.77362    -45.16532 
   35000    141.05661   -45.065469 
   35100    140.91812   -45.052436 
   35200    135.84006   -44.921695 
   35300    154.62217   -45.305253 
   35400    134.83048   -44.832236 
   35500    161.11879   -45.362457 
   35600    136.64227   -44.771073 
   35700    157.64083   -45.174758 
   35800    148.77385    -44.91086 
   35900    152.69382   -44.925268 
   36000     153.9429   -44.883833 
   36100    149.05841   -44.705326 
   36200    149.38016   -44.644757 
   36300     148.1752    -44.55194 
   36400    160.20295   -44.752525 
   36500    157.92512   -44.650199 
   36600    146.64311   -44.354644 
   36700    163.91405   -44.697693 
   36800    146.11182   -44.275693 
   36900    163.28685   -44.631515 
   37000    154.32476   -44.416305 
   37100     160.1646   -44.545032 
   37200    156.70394   -44.488163 
   37300    173.91184   -44.900594 
   37400    152.96866   -44.493224 
   37500    160.56085   -44.734906 
   37600    151.44151   -44.634909 
   37700    152.05375   -44.752037 
   37800    155.65659   -44.935943 
   37900    140.36861   -44.699778 
   38000    141.23297   -44.814919 
   38100    152.55608   -45.148377 
   38200    151.54476   -45.201363 
   38300     145.2501    -45.13046 
   38400     153.2428    -45.36659 
   38500    157.65959   -45.515383 
   38600    137.96595   -45.122424 
   38700    139.02807    -45.18074 
   38800    155.11225    -45.55665 
   38900    140.96989   -45.262889 
   39000    136.90544   -45.180329 
   39100    150.43531   -45.476448 
   39200    140.89911   -45.256901 
   39300    145.06875   -45.322417 
   39400    141.22257   -45.196618 
   39500    155.36034   -45.447783 
   39600    135.06444   -44.913501 
   39700    142.44254   -44.966598 
   39800    160.34221   -45.223142 
   39900    164.07864   -45.181997 
   40000    153.62432   -44.856299 
   40100    140.54931   -44.511809 
   40200    174.27046   -45.218295 
   40300     144.2586   -44.544408 
   40400    157.36193   -44.828462 
   40500    161.84781    -44.94289 
   40600    150.17229   -44.710449 
   40700    154.76758   -44.847655 
   40800    144.15818   -44.663882 
   40900     155.5571    -44.98386 
   41000    143.72642   -44.796396 
   41100     160.3809   -45.234984 
   41200    146.81092   -45.013056 
   41300    162.65706   -45.435595 
   41400    144.35833   -45.099662 
   41500    151.44046   -45.311859 
   41600    152.01128   -45.363011 
   41700    154.91533   -45.456556 
   41800    127.27641     -44.8671 
   41900    151.16064     -45.4048 
   42000    146.52393   -45.305888 
   42100    150.81759   -45.398629 
   42200    146.43868    -45.29465 
   42300    147.03105   -45.295871 
   42400    147.43566   -45.294106 
   42500    142.86439   -45.176986 
   42600    137.95685   -45.045996 
   42700    158.50554   -45.474232 
   42800    144.39672   -45.132623 
   42900    142.81314   -45.054897 
   43000    142.19098   -44.990595 
   43100    151.50618   -45.133397 
   43200    146.79624    -44.94965 
   43300    162.32392   -45.184522 
   43400    163.38425   -45.086356 
   43500    165.06538   -44.990898 
   43600    152.53183   -44.590177 
   43700    166.52022   -44.801675 
   43800    163.29231   -44.668848 
   43900     146.0128   -44.254408 
   44000    144.73833   -44.220831 
   44100    161.19612   -44.594229 
   44200    153.52259   -44.460758 
   44300    143.74733   -44.291385 
   44400    159.64119   -44.686493 
   44500    160.02231   -44.740527 
   44600    161.46385   -44.824025 
   44700    156.99002   -44.779559 
   44800    158.88649   -44.874384 
   44900     155.0158   -44.849328 
   45000    158.98947   -44.990332 
   45100    145.29167   -44.742433 
   45200    150.18949   -44.904826 
   45300    154.70856    -45.05592 
   45400    142.28986   -44.822774 
   45500    143.66563   -44.888157 
   45600    146.83405   -44.989577 
   45700    150.05336    -45.08917 
   45800    159.93182    -45.33703 
   45900    133.65507   -44.788489 
   46000    147.64384   -45.126522 
   46100    142.31881   -45.037479 
   46200    152.87819   -45.297197 
   46300    149.69544   -45.254516 
   46400    156.45642    -45.43196 
   46500    137.09185   -45.042364 
   46600    137.93618   -45.111517 
   46700    136.93913   -45.157468 
   46800    143.39253    -45.38718 
   46900    139.88636   -45.400131 
   47000    133.06884   -45.339827 
   47100    132.87207   -45.412863 
   47200    139.99393   -45.625707 
   47300    132.42387   -45.495461 
   47400    144.36892   -45.773648 
   47500     117.5187   -45.174365 
   47600    141.85089   -45.678745 
   47700    134.17912   -45.454897 
   47800    133.86465   -45.360339 
   47900    136.59154   -45.314612 
   48000    152.09907   -45.539561 
   48100    139.31052   -45.154167 
   48200    147.79059   -45.263556 
   48300    147.55949   -45.198524 
   48400    140.46419   -44.996463 
   48500    157.62414   -45.338618 
   48600    154.76069   -45.250961 
   48700    163.24837   -45.416171 
   48800    146.17292   -45.019183 
   48900    171.42485   -45.553896 
   49000    155.25751   -45.176809 
   49100    157.63366    -45.21228 
   49200    147.51328   -44.974699 
   49300    159.46055   -45.222261 
   49400    142.96401   -44.848335 
   49500     156.8889   -45.147512 
   49600    154.56588   -45.087531 
   49700    172.10175   -45.464299 
   49800    145.33783   -44.868122 
   49900    146.37238   -44.890914 
   50000    156.68125   -45.118277 
Loop time of 13.0006 on 1 procs for 50000 steps with 172 atoms

Performance: 664.586 ns/day, 0.036 hours/ns, 3845.983 timesteps/s
81.4% CPU use with 1 MPI tasks x 1 OpenMP threads

MPI task timing breakdown:
Section |  min time  |  avg time  |  max time  |%varavg| %total
---------------------------------------------------------------
Pair    | 11.444     | 11.444     | 11.444     |   0.0 | 88.02
Neigh   | 0.2457     | 0.2457     | 0.2457     |   0.0 |  1.89
Comm    | 0.032055   | 0.032055   | 0.032055   |   0.0 |  0.25
Output  | 0.43493    | 0.43493    | 0.43493    |   0.0 |  3.35
Modify  | 0.70028    | 0.70028    | 0.70028    |   0.0 |  5.39
Other   |            | 0.1439     |            |       |  1.11

Nlocal:    172 ave 172 max 172 min
Histogram: 1 0 0 0 0 0 0 0 0 0
Nghost:    0 ave 0 max 0 min
Histogram: 1 0 0 0 0 0 0 0 0 0
Neighs:    7674 ave 7674 max 7674 min
Histogram: 1 0 0 0 0 0 0 0 0 0

Total # of neighbors = 7674
Ave neighs/atom = 44.6163
Neighbor list builds = 864
Dangerous builds = 0
Total wall time: 0:00:13
