LAMMPS (17 Nov 2015)
WARNING: OMP_NUM_THREADS environment is not set. (../comm.cpp:90)
  using 1 OpenMP thread(s) per MPI task
# LJ

print           "Seed: ${seed}"
Seed: 30096

units		metal
atom_style	atomic
boundary 	p p p


#read_restart	pol.restart_300_1

lattice 	fcc 5
Lattice spacing in x,y,z = 5 5 5
region          box block 0 10 0 10 0 10 units lattice
create_box	1 box
Created orthogonal box = (0 0 0) to (50 50 50)
  1 by 1 by 1 MPI processor grid

region 		cryst block 3 6 3 6 3 6 units lattice
create_atoms 	1 region cryst
Created 172 atoms

mass		1 12.011

pair_style 	lj/cut 9
pair_coeff 	1 1 0.05 3.0 	#solid at 0.05/liquid at 0.25 at 300 K
pair_modify 	shift yes

velocity 	all create 50.0 ${seed} mom yes rot yes
velocity 	all create 50.0 30096 mom yes rot yes

thermo		100
thermo_style 	custom step temp pe
timestep	0.002
dump		1 all custom 100 first.lammpstrj id type x y z element vx vy vz
dump_modify	1 element C
write_dump	all xyz pos.xyz modify element H
WARNING: Calling write_dump before a full system init. (../write_dump.cpp:81)
restart 	50000 restart1 restart2

fix 		1 all nvt temp 300.0 300.0 1.0
run		50000
Neighbor list info ...
  1 neighbor list requests
  update every 1 steps, delay 10 steps, check yes
  max neighbors/atom: 2000, page size: 100000
  master list distance cutoff = 11
  ghost atom cutoff = 11
  binsize = 5.5 -> bins = 10 10 10
Memory usage per processor = 3.75797 Mbytes
Step Temp PotEng 
       0           50   -41.803497 
     100     170.1554   -44.363038 
     200    142.23214   -43.541711 
     300    134.61148   -43.211635 
     400    152.46321   -43.381287 
     500    115.40799    -42.36833 
     600    182.04212   -43.616325 
     700    164.68485   -42.941472 
     800    142.92832   -42.209436 
     900    172.52577   -42.561865 
    1000    163.42282   -42.049671 
    1100    171.92524   -41.933949 
    1200    190.54699   -42.013197 
    1300    192.76202   -41.729546 
    1400    199.74669   -41.530094 
    1500    181.16652   -40.771021 
    1600     202.3384   -40.877584 
    1700    207.97157   -40.624912 
    1800    211.49441   -40.324992 
    1900     244.3156   -40.647022 
    2000    220.22433   -39.738782 
    2100    252.24172   -40.054563 
    2200    245.44645   -39.510269 
    2300    258.42062    -39.40687 
    2400    276.60324   -39.409329 
    2500    258.21922   -38.622214 
    2600    277.12405   -38.649236 
    2700    262.81071   -37.956614 
    2800    273.49112    -37.83491 
    2900      259.826   -37.186363 
    3000    270.45849   -37.085731 
    3100    278.30321   -36.910492 
    3200    310.79442   -37.293629 
    3300    294.99765   -36.617906 
    3400    332.01773   -37.105378 
    3500    294.79712   -36.001923 
    3600    274.46408   -35.296932 
    3700    313.07656   -35.863241 
    3800    310.53168   -35.549801 
    3900     315.1961    -35.43513 
    4000    297.21839   -34.839274 
    4100    324.06135     -35.2594 
    4200    311.46799   -34.852357 
    4300    303.21906   -34.576179 
    4400    294.13214    -34.29118 
    4500    328.32051   -34.972306 
    4600    329.97392   -34.964556 
    4700    292.58004   -34.159719 
    4800     302.2698   -34.418051 
    4900    315.10858   -34.771889 
    5000    306.34578   -34.687526 
    5100    283.64421   -34.308583 
    5200    325.29954   -35.344691 
    5300    354.02736   -36.138879 
    5400    298.44371   -35.114492 
    5500    292.57138    -35.15989 
    5600    302.43031   -35.533938 
    5700    266.87425    -34.88572 
    5800    264.99532   -34.917343 
    5900    291.46096   -35.532632 
    6000    262.57692   -34.909197 
    6100    288.29334   -35.435808 
    6200    308.65592   -35.799335 
    6300    271.87869   -34.897614 
    6400    281.62866    -34.99173 
    6500    318.89983   -35.673336 
    6600    320.37947   -35.594848 
    6700    307.47057    -35.21983 
    6800    315.92124   -35.305978 
    6900    266.75885   -34.121017 
    7000    271.90514   -34.101163 
    7100     290.6651   -34.337033 
    7200     315.3671   -34.682338 
    7300     318.3724   -34.561409 
    7400     316.7638   -34.363982 
    7500    324.13906   -34.392571 
    7600    308.81796   -33.978578 
    7700    279.26126   -33.285949 
    7800     315.0515   -34.037865 
    7900    304.49735   -33.791901 
    8000    306.64961   -33.850496 
    8100    292.24333    -33.53656 
    8200    311.74227   -33.969567 
    8300    312.45092   -34.001387 
    8400     300.1911   -33.758092 
    8500    278.33857   -33.314082 
    8600    307.29447   -33.974045 
    8700    321.79596   -34.320169 
    8800    289.97766    -33.66269 
    8900    297.41928   -33.869197 
    9000      305.958   -34.102413 
    9100    274.86446   -33.474901 
    9200     331.9664   -34.796642 
    9300    302.45201   -34.227564 
    9400     287.1799   -33.969277 
    9500    354.62645    -35.52414 
    9600    318.92012   -34.836181 
    9700    294.12499    -34.40514 
    9800    287.16132   -34.356886 
    9900    286.13839   -34.436159 
   10000    304.87015    -34.93708 
   10100    319.98441   -35.360716 
   10200    286.72794   -34.722185 
   10300    278.83298   -34.624787 
   10400    278.92179   -34.688848 
   10500    295.53288   -35.106404 
   10600    311.65117   -35.496468 
   10700     289.3065   -35.021071 
   10800    279.15721   -34.804866 
   10900    311.77425   -35.510958 
   11000    296.66383   -35.185984 
   11100    284.67843   -34.930501 
   11200    286.52252   -34.959847 
   11300    273.56375   -34.636205 
   11400    287.33653   -34.865136 
   11500    298.23006   -34.989489 
   11600    273.76863   -34.305711 
   11700    289.33815   -34.459038 
   11800    285.01011     -34.1497 
   11900    307.69483   -34.447714 
   12000    314.54996   -34.416788 
   12100    321.66268   -34.433308 
   12200    311.63087   -34.105062 
   12300    294.90936   -33.658458 
   12400    322.24359   -34.196998 
   12500    310.81153   -33.906858 
   12600    297.24482   -33.603855 
   12700    294.74198   -33.539243 
   12800    327.77467   -34.251221 
   12900    311.50585   -33.889714 
   13000    310.09912   -33.863848 
   13100    302.11097   -33.698203 
   13200    324.19795   -34.234809 
   13300    307.78666   -33.978041 
   13400    309.33149   -34.160012 
   13500    330.67208   -34.833956 
   13600    303.16885   -34.514247 
   13700    294.60488   -34.610703 
   13800     286.8734   -34.674695 
   13900    293.62143   -34.987497 
   14000    294.28432    -35.08567 
   14100    300.89053   -35.266588 
   14200    270.95659   -34.614057 
   14300     315.3588   -35.595631 
   14400    292.61154   -35.111594 
   14500    270.20003   -34.611033 
   14600    268.65298   -34.526695 
   14700      285.523   -34.821254 
   14800    310.75037    -35.28663 
   14900    275.89601   -34.410719 
   15000    298.95536   -34.767627 
   15100    300.66772   -34.623113 
   15200    292.31505   -34.260209 
   15300    332.87769   -34.971239 
   15400    314.52157   -34.408851 
   15500    303.89076   -34.079181 
   15600    319.79997   -34.365082 
   15700    331.36407   -34.596579 
   15800    291.20482   -33.706379 
   15900    312.57174   -34.175859 
   16000    313.71159   -34.205548 
   16100     313.7208   -34.210232 
   16200    327.96848   -34.533556 
   16300    315.07783   -34.268451 
   16400    292.45988   -33.790548 
   16500    308.35656   -34.153479 
   16600    319.71274   -34.426601 
   16700    293.52673    -33.87188 
   16800    298.09189   -33.973411 
   16900    306.53097   -34.156232 
   17000    324.03208   -34.541199 
   17100    288.02828   -33.749061 
   17200    292.32913   -33.833958 
   17300    301.51373   -34.011501 
   17400    320.62292   -34.419743 
   17500    290.30553   -33.754689 
   17600    293.81001   -33.831438 
   17700     316.4997   -34.314468 
   17800    331.40357    -34.63953 
   17900    321.29307     -34.4579 
   18000    317.45454    -34.50021 
   18100    307.59527   -34.485304 
   18200    297.04905   -34.482449 
   18300    274.17704    -34.19947 
   18400    276.20967   -34.427977 
   18500    301.04584   -35.143193 
   18600    257.06269   -34.288221 
   18700    327.64708   -35.906276 
   18800    317.01325   -35.719628 
   18900    288.46509   -35.141871 
   19000    308.80838   -35.632389 
   19100    282.70017   -35.073343 
   19200    285.07423   -35.117707 
   19300    301.01219   -35.437778 
   19400    292.92415    -35.20626 
   19500    286.68521   -34.989759 
   19600    266.98538   -34.429018 
   19700    277.28627   -34.482257 
   19800    309.49576   -34.928824 
   19900    318.52478   -34.839866 
   20000    317.91001   -34.605281 
   20100    329.27763    -34.70109 
   20200    310.58775   -34.227798 
   20300    273.95289   -33.396098 
   20400    310.95804   -34.177873 
   20500    289.69045   -33.669153 
   20600    287.66447   -33.565088 
   20700    353.92401   -34.967832 
   20800    309.83871   -33.990819 
   20900    292.61745   -33.628921 
   21000    303.39974   -33.898308 
   21100    317.24089   -34.248486 
   21200    295.10698   -33.822994 
   21300    285.28356    -33.66062 
   21400    306.26852   -34.149408 
   21500    338.91954   -34.903583 
   21600    303.78799   -34.209844 
   21700    297.65732   -34.188356 
   21800    298.64068   -34.357239 
   21900    284.98029   -34.257857 
   22000    307.12049   -34.961075 
   22100    300.18272   -35.011401 
   22200    308.33917   -35.378556 
   22300    268.84118   -34.662699 
   22400    283.90437   -35.093287 
   22500    302.76504   -35.565499 
   22600     293.2544   -35.385126 
   22700    286.86113   -35.241408 
   22800    282.89539   -35.127535 
   22900    300.14221   -35.473285 
   23000    296.82062   -35.345764 
   23100    276.57608   -34.838205 
   23200    287.13518   -34.979877 
   23300    295.36988   -35.009194 
   23400    269.41657   -34.223339 
   23500    267.02909   -33.904349 
   23600    301.14352   -34.349577 
   23700    289.23143   -33.857779 
   23800    276.31104   -33.425111 
   23900     320.3435   -34.279903 
   24000    291.74509   -33.577318 
   24100    299.95024    -33.70651 
   24200     306.5106   -33.797086 
   24300    289.55292   -33.392501 
   24400    295.00393   -33.457826 
   24500    297.85638    -33.45157 
   24600    298.81055   -33.409362 
   24700    324.86039   -33.916509 
   24800     315.1843   -33.655316 
   24900    284.07202   -32.938719 
   25000    306.14709   -33.379774 
   25100    300.79574   -33.215061 
   25200    266.90179   -32.426469 
   25300    322.61409   -33.593546 
   25400     332.9994    -33.76592 
   25500    309.90028   -33.238437 
   25600    300.56059   -33.017536 
   25700    315.38557   -33.335886 
   25800    310.54306   -33.240858 
   25900    308.17347   -33.197485 
   26000    293.66366    -32.88331 
   26100    289.99008   -32.821897 
   26200    305.32936   -33.181979 
   26300    292.41533   -32.918965 
   26400    303.78037   -33.199604 
   26500    292.93629    -32.99765 
   26600     311.0871   -33.425424 
   26700    308.76863   -33.420604 
   26800    290.13076    -33.07877 
   26900    266.15524   -32.607627 
   27000    290.14405      -33.186 
   27100    293.76268    -33.29842 
   27200    279.70698   -33.005973 
   27300    311.80769   -33.721937 
   27400     282.0694   -33.087821 
   27500    277.96969    -33.02168 
   27600    293.87097   -33.380629 
   27700    309.08763   -33.727256 
   27800    291.48777   -33.354058 
   27900    292.70066   -33.390806 
   28000    288.72125   -33.302795 
   28100    292.71282   -33.375104 
   28200    310.36972   -33.730678 
   28300    301.35191   -33.475765 
   28400    303.67334    -33.45024 
   28500    297.27946    -33.21935 
   28600    258.98417   -32.286758 
   28700    295.14461   -32.966946 
   28800    303.89059   -33.022972 
   28900    304.60834   -32.896211 
   29000     322.2217   -33.154976 
   29100    310.61053   -32.791988 
   29200    311.30532   -32.704027 
   29300    300.76685   -32.365228 
   29400     332.8037   -32.984797 
   29500    315.31437   -32.555475 
   29600    308.49662   -32.413264 
   29700    301.99497   -32.310797 
   29800    305.13572   -32.455717 
   29900    279.18072   -31.985157 
   30000    311.79449   -32.834173 
   30100    319.55181   -33.217398 
   30200    278.90152   -32.575775 
   30300    292.99577   -33.136603 
   30400    277.90644   -33.002502 
   30500     298.9898   -33.596697 
   30600    277.16162   -33.210433 
   30700    282.84433    -33.38725 
   30800    317.94257   -34.177567 
   30900    298.31852   -33.752551 
   31000    291.97035   -33.606035 
   31100    314.87475   -34.080857 
   31200    313.23481   -34.017109 
   31300    300.96961   -33.724892 
   31400    303.63214   -33.762152 
   31500    324.26918   -34.207335 
   31600    292.38273   -33.505409 
   31700    283.89637    -33.29937 
   31800    279.01366   -33.128803 
   31900    312.95512   -33.748698 
   32000    295.19349   -33.173917 
   32100    285.58281   -32.744037 
   32200    320.31893   -33.248308 
   32300    298.54123   -32.537444 
   32400    311.87415    -32.66802 
   32500    319.68323    -32.71277 
   32600    303.36078   -32.274796 
   32700     318.2099    -32.54557 
   32800     310.9738    -32.37882 
   32900    295.03166   -32.082921 
   33000    296.46318   -32.177145 
   33100    338.07606   -33.186838 
   33200    316.40147   -32.853042 
   33300    306.74125   -32.818552 
   33400      311.199   -33.107249 
   33500    289.46112   -32.811633 
   33600    288.92549   -32.937717 
   33700    300.47854   -33.282956 
   33800    307.15761   -33.499003 
   33900    300.43507   -33.403079 
   34000    291.98922    -33.25051 
   34100    275.59503   -32.912178 
   34200    293.76717   -33.328585 
   34300    313.48648   -33.763725 
   34400    297.30137   -33.402725 
   34500    292.96605   -33.299522 
   34600    315.76216   -33.817227 
   34700    308.92523   -33.683225 
   34800    313.30356   -33.800326 
   34900    298.15346   -33.494894 
   35000     321.4335   -34.042973 
   35100    300.04289   -33.629224 
   35200    292.83836   -33.546848 
   35300    306.84284    -33.93328 
   35400    308.33558    -34.06403 
   35500    266.43858   -33.239207 
   35600    313.33337    -34.38251 
   35700    300.55375   -34.258497 
   35800    284.12235   -34.100949 
   35900    311.67371   -34.979842 
   36000    261.38934   -34.172241 
   36100    256.60754   -34.285772 
   36200    269.01402     -34.6878 
   36300    287.38456   -35.162073 
   36400    279.71008   -35.015358 
   36500    274.67479    -34.88717 
   36600    274.54747   -34.832433 
   36700      292.479   -35.157718 
   36800    286.94027   -34.958913 
   36900    284.23416   -34.798338 
   37000    289.07557   -34.774552 
   37100    279.73406   -34.439267 
   37200    301.51862   -34.780742 
   37300    301.32971   -34.660164 
   37400     268.1338   -33.831314 
   37500    294.77588   -34.303585 
   37600    308.63241   -34.507352 
   37700    282.16238   -33.833406 
   37800    290.49682   -33.914499 
   37900    300.91755   -34.013919 
   38000    328.12854    -34.50231 
   38100    306.03738    -33.94766 
   38200    287.72832   -33.487345 
   38300    301.60004   -33.732357 
   38400    311.63035   -33.886298 
   38500    326.66312   -34.164374 
   38600    290.66241   -33.351307 
   38700    305.77871   -33.672356 
   38800    326.10855   -34.102266 
   38900    302.44007   -33.570754 
   39000    313.73626    -33.81698 
   39100     303.2292   -33.579454 
   39200    309.04126    -33.70401 
   39300    346.90733   -34.563105 
   39400    293.18332   -33.448606 
   39500    278.41065   -33.193581 
   39600    298.91716    -33.70965 
   39700    266.30216   -33.071637 
   39800    275.72518   -33.390696 
   39900    304.74984   -34.214286 
   40000    286.98019   -34.084235 
   40100    286.77337   -34.350798 
   40200     296.4486   -34.803832 
   40300    305.08032   -35.176779 
   40400    288.86634    -34.95118 
   40500    298.84869   -35.264881 
   40600    258.64822   -34.427211 
   40700    273.67826   -34.759197 
   40800    292.78188   -35.147981 
   40900    261.45955    -34.39527 
   41000      280.321    -34.71058 
   41100    300.74775   -35.028912 
   41200    302.68341   -34.927718 
   41300    287.64728   -34.454787 
   41400    319.25336   -35.005396 
   41500    301.30955   -34.475047 
   41600    299.96543   -34.326566 
   41700    300.15792   -34.198495 
   41800    310.31366   -34.301841 
   41900    347.59932   -35.031571 
   42000    320.22835    -34.39337 
   42100    315.36662   -34.285278 
   42200    293.15637    -33.79048 
   42300    290.05827   -33.722908 
   42400    327.33446   -34.556805 
   42500     297.7728   -33.946908 
   42600    307.34079   -34.231253 
   42700    294.61305   -34.057517 
   42800    287.85609   -34.050585 
   42900    306.42522   -34.654741 
   43000    279.48604   -34.295459 
   43100    291.32008   -34.789936 
   43200    302.65567   -35.264273 
   43300    290.67088    -35.19363 
   43400    276.43008   -35.005816 
   43500    269.88051   -34.942437 
   43600    254.21639   -34.630981 
   43700    258.00061   -34.683117 
   43800    239.40507   -34.179465 
   43900     274.0238   -34.795023 
   44000    292.43258   -34.994072 
   44100    275.37903   -34.434149 
   44200    266.22561   -34.046064 
   44300    315.95132   -34.976835 
   44400    291.70533   -34.337791 
   44500    277.22147   -33.948929 
   44600    320.36358   -34.818073 
   44700    309.53359   -34.517289 
   44800     288.2998   -33.996173 
   44900    294.81946   -34.066829 
   45000    293.80311   -33.941091 
   45100    282.91205   -33.594022 
   45200    309.22177   -34.069224 
   45300    306.56137   -33.916038 
   45400    297.53988   -33.625654 
   45500     288.9649   -33.347924 
   45600    306.66766     -33.6351 
   45700    317.06297   -33.767049 
   45800    292.89526   -33.142241 
   45900    313.35382   -33.487107 
   46000    300.02987   -33.074065 
   46100    321.40605   -33.421563 
   46200    336.99469    -33.63112 
   46300    335.61492   -33.494318 
   46400    304.56751   -32.724519 
   46500     334.5741   -33.272917 
   46600    336.66228   -33.185541 
   46700    310.75653   -32.500919 
   46800    333.84514   -32.902872 
   46900     319.7605   -32.519755 
   47000    307.87562   -32.243939 
   47100    321.30752   -32.554319 
   47200    297.02437   -32.093491 
   47300    344.92879   -33.305499 
   47400    325.94749   -33.086376 
   47500    337.95901   -33.599398 
   47600    313.48751   -33.352256 
   47700    310.87232   -33.561088 
   47800    312.02282    -33.79082 
   47900    297.64606   -33.621585 
   48000    307.93328   -33.978515 
   48100    313.76637   -34.244668 
   48200    308.71264   -34.273802 
   48300    281.26674   -33.785183 
   48400    315.89601   -34.659695 
   48500    307.15894   -34.592522 
   48600    295.68495   -34.455969 
   48700    316.46029   -35.018667 
   48800    307.70578   -34.952074 
   48900    279.06186   -34.439891 
   49000    282.83199   -34.594743 
   49100    295.50607    -34.91944 
   49200    285.07994   -34.709117 
   49300    276.32641   -34.494399 
   49400    279.40178    -34.49215 
   49500    269.89393   -34.175451 
   49600     313.6596   -34.973308 
   49700    291.81783   -34.284114 
   49800    275.36664   -33.711512 
   49900     303.7001   -34.109791 
   50000    303.55169   -33.916662 
Loop time of 11.5334 on 1 procs for 50000 steps with 172 atoms

Performance: 749.127 ns/day, 0.032 hours/ns, 4335.225 timesteps/s
80.9% CPU use with 1 MPI tasks x 1 OpenMP threads

MPI task timing breakdown:
Section |  min time  |  avg time  |  max time  |%varavg| %total
---------------------------------------------------------------
Pair    | 9.8038     | 9.8038     | 9.8038     |   0.0 | 85.00
Neigh   | 0.423      | 0.423      | 0.423      |   0.0 |  3.67
Comm    | 0.06587    | 0.06587    | 0.06587    |   0.0 |  0.57
Output  | 0.43083    | 0.43083    | 0.43083    |   0.0 |  3.74
Modify  | 0.68165    | 0.68165    | 0.68165    |   0.0 |  5.91
Other   |            | 0.1283     |            |       |  1.11

Nlocal:    172 ave 172 max 172 min
Histogram: 1 0 0 0 0 0 0 0 0 0
Nghost:    29 ave 29 max 29 min
Histogram: 1 0 0 0 0 0 0 0 0 0
Neighs:    6445 ave 6445 max 6445 min
Histogram: 1 0 0 0 0 0 0 0 0 0

Total # of neighbors = 6445
Ave neighs/atom = 37.4709
Neighbor list builds = 1464
Dangerous builds = 0
Total wall time: 0:00:11
